
                                 *****************
                                 * O   R   C   A *
                                 *****************

                                            #,                                       
                                            ###                                      
                                            ####                                     
                                            #####                                    
                                            ######                                   
                                           ########,                                 
                                     ,,################,,,,,                         
                               ,,#################################,,                 
                          ,,##########################################,,             
                       ,#########################################, ''#####,          
                    ,#############################################,,   '####,        
                  ,##################################################,,,,####,       
                ,###########''''           ''''###############################       
              ,#####''   ,,,,##########,,,,          '''####'''          '####       
            ,##' ,,,,###########################,,,                        '##       
           ' ,,###''''                  '''############,,,                           
         ,,##''                                '''############,,,,        ,,,,,,###''
      ,#''                                            '''#######################'''  
     '                                                          ''''####''''         
             ,#######,   #######,   ,#######,      ##                                
            ,#'     '#,  ##    ##  ,#'     '#,    #''#        ######   ,####,        
            ##       ##  ##   ,#'  ##            #'  '#       #        #'  '#        
            ##       ##  #######   ##           ,######,      #####,   #    #        
            '#,     ,#'  ##    ##  '#,     ,#' ,#      #,         ##   #,  ,#        
             '#######'   ##     ##  '#######'  #'      '#     #####' # '####'        



                  #######################################################
                  #                        -***-                        #
                  #          Department of theory and spectroscopy      #
                  #    Directorship and core code : Frank Neese         #
                  #        Max Planck Institute fuer Kohlenforschung    #
                  #                Kaiser Wilhelm Platz 1               #
                  #                 D-45470 Muelheim/Ruhr               #
                  #                      Germany                        #
                  #                                                     #
                  #                  All rights reserved                #
                  #                        -***-                        #
                  #######################################################


                         Program Version 5.0.2 -  RELEASE  -


 With contributions from (in alphabetic order):
   Daniel Aravena         : Magnetic Suceptibility
   Michael Atanasov       : Ab Initio Ligand Field Theory (pilot matlab implementation)
   Alexander A. Auer      : GIAO ZORA, VPT2 properties, NMR spectrum
   Ute Becker             : Parallelization
   Giovanni Bistoni       : ED, misc. LED, open-shell LED, HFLD
   Martin Brehm           : Molecular dynamics
   Dmytro Bykov           : SCF Hessian
   Vijay G. Chilkuri      : MRCI spin determinant printing, contributions to CSF-ICE
   Dipayan Datta          : RHF DLPNO-CCSD density
   Achintya Kumar Dutta   : EOM-CC, STEOM-CC
   Dmitry Ganyushin       : Spin-Orbit,Spin-Spin,Magnetic field MRCI
   Miquel Garcia          : C-PCM and meta-GGA Hessian, CC/C-PCM, Gaussian charge scheme
   Yang Guo               : DLPNO-NEVPT2, F12-NEVPT2, CIM, IAO-localization
   Andreas Hansen         : Spin unrestricted coupled pair/coupled cluster methods
   Benjamin Helmich-Paris : MC-RPA, TRAH-SCF, COSX integrals
   Lee Huntington         : MR-EOM, pCC
   Robert Izsak           : Overlap fitted RIJCOSX, COSX-SCS-MP3, EOM
   Marcus Kettner         : VPT2
   Christian Kollmar      : KDIIS, OOCD, Brueckner-CCSD(T), CCSD density, CASPT2, CASPT2-K
   Simone Kossmann        : Meta GGA functionals, TD-DFT gradient, OOMP2, MP2 Hessian
   Martin Krupicka        : Initial AUTO-CI
   Lucas Lang             : DCDCAS
   Marvin Lechner         : AUTO-CI (C++ implementation), FIC-MRCC
   Dagmar Lenk            : GEPOL surface, SMD
   Dimitrios Liakos       : Extrapolation schemes; Compound Job, initial MDCI parallelization
   Dimitrios Manganas     : Further ROCIS development; embedding schemes
   Dimitrios Pantazis     : SARC Basis sets
   Anastasios Papadopoulos: AUTO-CI, single reference methods and gradients
   Taras Petrenko         : DFT Hessian,TD-DFT gradient, ASA, ECA, R-Raman, ABS, FL, XAS/XES, NRVS
   Peter Pinski           : DLPNO-MP2, DLPNO-MP2 Gradient
   Christoph Reimann      : Effective Core Potentials
   Marius Retegan         : Local ZFS, SOC
   Christoph Riplinger    : Optimizer, TS searches, QM/MM, DLPNO-CCSD(T), (RO)-DLPNO pert. Triples
   Tobias Risthaus        : Range-separated hybrids, TD-DFT gradient, RPA, STAB
   Michael Roemelt        : Original ROCIS implementation
   Masaaki Saitow         : Open-shell DLPNO-CCSD energy and density
   Barbara Sandhoefer     : DKH picture change effects
   Avijit Sen             : IP-ROCIS
   Kantharuban Sivalingam : CASSCF convergence, NEVPT2, FIC-MRCI
   Bernardo de Souza      : ESD, SOC TD-DFT
   Georgi Stoychev        : AutoAux, RI-MP2 NMR, DLPNO-MP2 response
   Willem Van den Heuvel  : Paramagnetic NMR
   Boris Wezisla          : Elementary symmetry handling
   Frank Wennmohs         : Technical directorship


 We gratefully acknowledge several colleagues who have allowed us to
 interface, adapt or use parts of their codes:
   Stefan Grimme, W. Hujo, H. Kruse, P. Pracht,  : VdW corrections, initial TS optimization,
                  C. Bannwarth, S. Ehlert          DFT functionals, gCP, sTDA/sTD-DF
   Ed Valeev, F. Pavosevic, A. Kumar             : LibInt (2-el integral package), F12 methods
   Garnet Chan, S. Sharma, J. Yang, R. Olivares  : DMRG
   Ulf Ekstrom                                   : XCFun DFT Library
   Mihaly Kallay                                 : mrcc  (arbitrary order and MRCC methods)
   Jiri Pittner, Ondrej Demel                    : Mk-CCSD
   Frank Weinhold                                : gennbo (NPA and NBO analysis)
   Christopher J. Cramer and Donald G. Truhlar   : smd solvation model
   Lars Goerigk                                  : TD-DFT with DH, B97 family of functionals
   V. Asgeirsson, H. Jonsson                     : NEB implementation
   FAccTs GmbH                                   : IRC, NEB, NEB-TS, DLPNO-Multilevel, CI-OPT
                                                   MM, QMMM, 2- and 3-layer-ONIOM, Crystal-QMMM,
                                                   LR-CPCM, SF, NACMEs, symmetry and pop. for TD-DFT,
                                                   nearIR, NL-DFT gradient (VV10), updates on ESD,
                                                   ML-optimized integration grids
   S Lehtola, MJT Oliveira, MAL Marques          : LibXC Library
   Liviu Ungur et al                             : ANISO software


 Your calculation uses the libint2 library for the computation of 2-el integrals
 For citations please refer to: http://libint.valeyev.net

 Your ORCA version has been built with support for libXC version: 5.1.0
 For citations please refer to: https://tddft.org/programs/libxc/

 This ORCA versions uses:
   CBLAS   interface :  Fast vector & matrix operations
   LAPACKE interface :  Fast linear algebra routines
   SCALAPACK package :  Parallel linear algebra routines
   Shared memory     :  Shared parallel matrices
   BLAS/LAPACK       :  OpenBLAS 0.3.15  USE64BITINT DYNAMIC_ARCH NO_AFFINITY Prescott SINGLE_THREADED
        Core in use  :  Prescott
   Copyright (c) 2011-2014, The OpenBLAS Project


================================================================================

----- Orbital basis set information -----
Your calculation utilizes the basis: 6-31G*
   H-He, Li-Ne : W. J. Hehre, R. Ditchfield and J.A. Pople, J. Chem. Phys. 56, 2257 (1972).
                 Note: He and Ne are unpublished basis sets taken from the Gaussian program.
                 Note: Li and B from J. D. Dill and J. A. Pople, J. Chem. Phys. 62, 2921 (1975).
   Na - Ar     : M. M. Francl, W. J. Pietro, W. J. Hehre, J. S. Binkley, M. S. Gordon, 
                 D. J. DeFrees and J. A. Pople, J. Chem. Phys. 77, 3654 (1982).
   K - Zn      : V. A. Rassolov, J. A. Pople, M. A. Ratner, and T. L. Windus, J. Chem. Phys. 109, 1223 (1998).

----- AuxJ basis set information -----
Your calculation utilizes the auxiliary basis: def2/J
   F. Weigend, Phys. Chem. Chem. Phys. 8, 1057 (2006).

================================================================================
                                        WARNINGS
                       Please study these warnings very carefully!
================================================================================


INFO   : the flag for use of the SHARK integral package has been found!

================================================================================
                                       INPUT FILE
================================================================================
NAME = Fe_plus2_small_fc.orca
|  1> ! B3LYP 6-31G* Freq
|  2> 
|  3> %pal
|  4> nprocs 32
|  5> end
|  6> 
|  7> * xyz 2 1
|  8> Fe  -0.004413  0.002948  0.000301
|  9> N  0.516850  1.669585  0.971908
| 10> C  1.186663  1.746836  2.138862
| 11> C  1.562198  2.953502  2.721937
| 12> C  1.237305  4.142887  2.070416
| 13> C  0.545850  4.077124  0.863170
| 14> C  0.195090  2.830797  0.335518
| 15> C  -0.545326  2.647572  -0.926351
| 16> C  -1.034542  3.699656  -1.706488
| 17> C  -1.722383  3.420260  -2.884903
| 18> C  -1.904243  2.087919  -3.254349
| 19> C  -1.392911  1.089344  -2.430817
| 20> N  -0.724105  1.346288  -1.289353
| 21> H  -1.514971  0.044698  -2.689355
| 22> H  -2.432590  1.818623  -4.162740
| 23> H  -2.108341  4.227520  -3.499504
| 24> H  -0.886377  4.728059  -1.398599
| 25> H  0.286574  4.989434  0.338952
| 26> H  1.516002  5.103886  2.491378
| 27> H  2.098608  2.951881  3.664887
| 28> H  1.423208  0.805117  2.618895
| 29> N  -1.823131  -0.125841  0.815010
| 30> C  -2.352077  0.702262  1.737416
| 31> C  -3.649619  0.570160  2.223138
| 32> C  -4.447560  -0.462760  1.732247
| 33> C  -3.914053  -1.323809  0.776289
| 34> C  -2.600462  -1.136676  0.334981
| 35> C  -1.936310  -1.991083  -0.666447
| 36> C  -2.524381  -3.119766  -1.245231
| 37> C  -1.814476  -3.857269  -2.189677
| 38> C  -0.527875  -3.443723  -2.533276
| 39> C  -0.000943  -2.313348  -1.915534
| 40> N  -0.677389  -1.590809  -1.000926
| 41> H  0.995278  -1.965017  -2.159029
| 42> H  0.064616  -3.983065  -3.264633
| 43> H  -2.258772  -4.736162  -2.646367
| 44> H  -3.524407  -3.426391  -0.961795
| 45> H  -4.518733  -2.129925  0.377675
| 46> H  -5.465696  -0.596705  2.084197
| 47> H  -4.019029  1.266453  2.968491
| 48> H  -1.706358  1.493817  2.097729
| 49> N  0.860316  -1.242245  1.302488
| 50> C  0.272589  -1.842864  2.356015
| 51> C  0.937745  -2.735150  3.191721
| 52> C  2.275359  -3.029491  2.929311
| 53> C  2.894397  -2.416809  1.842393
| 54> C  2.167600  -1.527690  1.044842
| 55> C  2.725995  -0.823081  -0.123843
| 56> C  4.058275  -0.924128  -0.536142
| 57> C  4.485495  -0.221468  -1.660251
| 58> C  3.564150  0.568931  -2.346502
| 59> C  2.254165  0.627211  -1.880118
| 60> N  1.827728  -0.049147  -0.795220
| 61> H  1.513679  1.230919  -2.390442
| 62> H  3.847664  1.134280  -3.227899
| 63> H  5.517110  -0.290443  -1.991074
| 64> H  4.759423  -1.541339  0.013280
| 65> H  3.932182  -2.634385  1.618749
| 66> H  2.827828  -3.722176  3.556524
| 67> H  0.411455  -3.185152  4.026786
| 68> H  -0.765926  -1.591051  2.532363
| 69> **                         ****END OF INPUT****
================================================================================

                       ****************************
                       * Single Point Calculation *
                       ****************************

---------------------------------
CARTESIAN COORDINATES (ANGSTROEM)
---------------------------------
  Fe    -0.004413    0.002948    0.000301
  N      0.516850    1.669585    0.971908
  C      1.186663    1.746836    2.138862
  C      1.562198    2.953502    2.721937
  C      1.237305    4.142887    2.070416
  C      0.545850    4.077124    0.863170
  C      0.195090    2.830797    0.335518
  C     -0.545326    2.647572   -0.926351
  C     -1.034542    3.699656   -1.706488
  C     -1.722383    3.420260   -2.884903
  C     -1.904243    2.087919   -3.254349
  C     -1.392911    1.089344   -2.430817
  N     -0.724105    1.346288   -1.289353
  H     -1.514971    0.044698   -2.689355
  H     -2.432590    1.818623   -4.162740
  H     -2.108341    4.227520   -3.499504
  H     -0.886377    4.728059   -1.398599
  H      0.286574    4.989434    0.338952
  H      1.516002    5.103886    2.491378
  H      2.098608    2.951881    3.664887
  H      1.423208    0.805117    2.618895
  N     -1.823131   -0.125841    0.815010
  C     -2.352077    0.702262    1.737416
  C     -3.649619    0.570160    2.223138
  C     -4.447560   -0.462760    1.732247
  C     -3.914053   -1.323809    0.776289
  C     -2.600462   -1.136676    0.334981
  C     -1.936310   -1.991083   -0.666447
  C     -2.524381   -3.119766   -1.245231
  C     -1.814476   -3.857269   -2.189677
  C     -0.527875   -3.443723   -2.533276
  C     -0.000943   -2.313348   -1.915534
  N     -0.677389   -1.590809   -1.000926
  H      0.995278   -1.965017   -2.159029
  H      0.064616   -3.983065   -3.264633
  H     -2.258772   -4.736162   -2.646367
  H     -3.524407   -3.426391   -0.961795
  H     -4.518733   -2.129925    0.377675
  H     -5.465696   -0.596705    2.084197
  H     -4.019029    1.266453    2.968491
  H     -1.706358    1.493817    2.097729
  N      0.860316   -1.242245    1.302488
  C      0.272589   -1.842864    2.356015
  C      0.937745   -2.735150    3.191721
  C      2.275359   -3.029491    2.929311
  C      2.894397   -2.416809    1.842393
  C      2.167600   -1.527690    1.044842
  C      2.725995   -0.823081   -0.123843
  C      4.058275   -0.924128   -0.536142
  C      4.485495   -0.221468   -1.660251
  C      3.564150    0.568931   -2.346502
  C      2.254165    0.627211   -1.880118
  N      1.827728   -0.049147   -0.795220
  H      1.513679    1.230919   -2.390442
  H      3.847664    1.134280   -3.227899
  H      5.517110   -0.290443   -1.991074
  H      4.759423   -1.541339    0.013280
  H      3.932182   -2.634385    1.618749
  H      2.827828   -3.722176    3.556524
  H      0.411455   -3.185152    4.026786
  H     -0.765926   -1.591051    2.532363

----------------------------
CARTESIAN COORDINATES (A.U.)
----------------------------
  NO LB      ZA    FRAG     MASS         X           Y           Z
   0 Fe   26.0000    0    55.850   -0.008339    0.005571    0.000569
   1 N     7.0000    0    14.007    0.976705    3.155058    1.836640
   2 C     6.0000    0    12.011    2.242468    3.301042    4.041863
   3 C     6.0000    0    12.011    2.952126    5.581310    5.143715
   4 C     6.0000    0    12.011    2.338168    7.828922    3.912519
   5 C     6.0000    0    12.011    1.031507    7.704648    1.631155
   6 C     6.0000    0    12.011    0.368667    5.349431    0.634037
   7 C     6.0000    0    12.011   -1.030517    5.003186   -1.750550
   8 C     6.0000    0    12.011   -1.955001    6.991337   -3.224795
   9 C     6.0000    0    12.011   -3.254832    6.463355   -5.451677
  10 C     6.0000    0    12.011   -3.598498    3.945595   -6.149828
  11 C     6.0000    0    12.011   -2.632220    2.058562   -4.593578
  12 N     7.0000    0    14.007   -1.368360    2.544116   -2.436524
  13 H     1.0000    0     1.008   -2.862880    0.084467   -5.082144
  14 H     1.0000    0     1.008   -4.596929    3.436699   -7.866439
  15 H     1.0000    0     1.008   -3.984187    7.988855   -6.613104
  16 H     1.0000    0     1.008   -1.675010    8.934737   -2.642969
  17 H     1.0000    0     1.008    0.541546    9.428664    0.640526
  18 H     1.0000    0     1.008    2.864829    9.644947    4.708022
  19 H     1.0000    0     1.008    3.965794    5.578247    6.925633
  20 H     1.0000    0     1.008    2.689473    1.521451    4.948994
  21 N     7.0000    0    14.007   -3.445218   -0.237805    1.540146
  22 C     6.0000    0    12.011   -4.444781    1.327083    3.283240
  23 C     6.0000    0    12.011   -6.896780    1.077446    4.201122
  24 C     6.0000    0    12.011   -8.404670   -0.874490    3.273472
  25 C     6.0000    0    12.011   -7.396488   -2.501636    1.466974
  26 C     6.0000    0    12.011   -4.914161   -2.148006    0.633022
  27 C     6.0000    0    12.011   -3.659096   -3.762602   -1.259402
  28 C     6.0000    0    12.011   -4.770389   -5.895503   -2.353146
  29 C     6.0000    0    12.011   -3.428863   -7.289182   -4.137890
  30 C     6.0000    0    12.011   -0.997539   -6.507693   -4.787198
  31 C     6.0000    0    12.011   -0.001782   -4.371594   -3.619835
  32 N     7.0000    0    14.007   -1.280080   -3.006193   -1.891476
  33 H     1.0000    0     1.008    1.880803   -3.713344   -4.079974
  34 H     1.0000    0     1.008    0.122107   -7.526902   -6.169262
  35 H     1.0000    0     1.008   -4.268460   -8.950049   -5.000909
  36 H     1.0000    0     1.008   -6.660164   -6.474941   -1.817529
  37 H     1.0000    0     1.008   -8.539168   -4.024975    0.713702
  38 H     1.0000    0     1.008  -10.328669   -1.127609    3.938562
  39 H     1.0000    0     1.008   -7.594864    2.393249    5.609635
  40 H     1.0000    0     1.008   -3.224549    2.822905    3.964133
  41 N     7.0000    0    14.007    1.625762   -2.347503    2.461346
  42 C     6.0000    0    12.011    0.515119   -3.482508    4.452223
  43 C     6.0000    0    12.011    1.772081   -5.168684    6.031479
  44 C     6.0000    0    12.011    4.299805   -5.724908    5.535596
  45 C     6.0000    0    12.011    5.469618   -4.567107    3.481618
  46 C     6.0000    0    12.011    4.096170   -2.886916    1.974465
  47 C     6.0000    0    12.011    5.151384   -1.555398   -0.234029
  48 C     6.0000    0    12.011    7.669028   -1.746349   -1.013162
  49 C     6.0000    0    12.011    8.476357   -0.418514   -3.137420
  50 C     6.0000    0    12.011    6.735267    1.075124   -4.434246
  51 C     6.0000    0    12.011    4.259755    1.185257   -3.552908
  52 N     7.0000    0    14.007    3.453905   -0.092874   -1.502748
  53 H     1.0000    0     1.008    2.860439    2.326100   -4.517281
  54 H     1.0000    0     1.008    7.271031    2.143479   -6.099845
  55 H     1.0000    0     1.008   10.425827   -0.548858   -3.762585
  56 H     1.0000    0     1.008    8.994006   -2.912709    0.025096
  57 H     1.0000    0     1.008    7.430747   -4.978266    3.058992
  58 H     1.0000    0     1.008    5.343820   -7.033893    6.720856
  59 H     1.0000    0     1.008    0.777537   -6.019065    7.609523
  60 H     1.0000    0     1.008   -1.447390   -3.006651    4.785473

--------------------------------
INTERNAL COORDINATES (ANGSTROEM)
--------------------------------
 Fe     0   0   0     0.000000000000     0.00000000     0.00000000
 N      1   0   0     1.998352863582     0.00000000     0.00000000
 C      2   1   0     1.347738405658   126.75735284     0.00000000
 C      3   2   1     1.391777937534   123.13004757   177.12712379
 C      4   3   2     1.394514880923   118.74214340   359.75780948
 C      5   4   3     1.392794921627   118.70848325     0.19247675
 C      2   1   3     1.362694037062   114.96346755   177.15049173
 C      7   2   1     1.474483172790   114.35228557     3.05408546
 C      8   7   2     1.398151199435   124.03626705   176.60161441
 C      9   8   7     1.392784720738   119.60051559   179.97214777
 C     10   9   8     1.394523555483   118.69926003     0.00000000
 C     11  10   9     1.391695871903   118.74059653     0.07145037
 N     12  11  10     1.347687555804   123.14315273   359.83023510
 H     12  11  10     1.083063158989   120.62449281   180.11695458
 H     11  10   9     1.084824915323   121.50167099   180.02226083
 H     10   9   8     1.085525989816   120.36103901   179.94003725
 H      9   8   7     1.083679488574   120.51274728   359.68646925
 H      6   5   4     1.083668810938   119.88948301   180.20621747
 H      5   4   3     1.085541386247   120.93462802   180.22576414
 H      4   3   2     1.084847002227   119.75326972   179.86337979
 H      3   2   1     1.083152756113   116.25930748   356.87462425
 N      1   2   3     1.997015904976    95.33562591    93.40852864
 C     22   1   2     1.347728191573   126.65690616   358.20433824
 C     23  22   1     1.391758614650   123.12327768   177.71746278
 C     24  23  22     1.394491857187   118.74579420   359.72959317
 C     25  24  23     1.392799625651   118.70826700     0.10945605
 C     22   1   2     1.362519255507   115.06771407   175.78948743
 C     27  22   1     1.474437940348   114.34385607     2.32372274
 C     28  27  22     1.398121501940   124.02186540   176.98976324
 C     29  28  27     1.392786426898   119.59043647   179.63036289
 C     30  29  28     1.394425580703   118.70753197   359.95476662
 C     31  30  29     1.391765120921   118.73978584     0.24870235
 N     32  31  30     1.347645944268   123.13714071   359.70847973
 H     32  31  30     1.083088445801   120.64137952   179.98385054
 H     31  30  29     1.084812628749   121.50762842   180.12051818
 H     30  29  28     1.085549444827   120.35630947   179.95290244
 H     29  28  27     1.083700538616   120.54944245   359.37014294
 H     26  25  24     1.083676164199   119.90758667   180.32257641
 H     25  24  23     1.085546396991   120.92675572   180.18078138
 H     24  23  22     1.084822005934   119.75807873   179.81068311
 H     23  22   1     1.083207183763   116.27669564   357.46486598
 N      1   2   3     1.998487636604    95.16199336   357.82854638
 C     42   1   2     1.347622109280   126.75370871    93.70265156
 C     43  42   1     1.391765543678   123.14296659   177.77130442
 C     44  43  42     1.394527463113   118.73421359   359.78329974
 C     45  44  43     1.392830936364   118.70527433     0.12595371
 C     42   1   2     1.362663482301   114.98781852   271.37227399
 C     47  42   1     1.474484129494   114.39814378     2.23426919
 C     48  47  42     1.398274279249   124.05636499   177.26987550
 C     49  48  47     1.392791817854   119.58950299   179.67253012
 C     50  49  48     1.394470373736   118.71655752     0.02423923
 C     51  50  49     1.391751160977   118.73230182     0.12754897
 N     52  51  50     1.347706321695   123.13205536   359.76567945
 H     52  51  50     1.083149782087   120.59273712   180.05195858
 H     51  50  49     1.084831946251   121.50349072   180.06430249
 H     50  49  48     1.085555579498   120.35793908   179.96689650
 H     49  48  47     1.083707742202   120.53876830   359.48450709
 H     46  45  44     1.083675994353   119.89124220   180.22039519
 H     45  44  43     1.085555458074   120.93843535   180.15059241
 H     44  43  42     1.084811743267   119.75633371   179.82188669
 H     43  42   1     1.083061313730   116.22204759   357.46733326

---------------------------
INTERNAL COORDINATES (A.U.)
---------------------------
 Fe     0   0   0     0.000000000000     0.00000000     0.00000000
 N      1   0   0     3.776339631108     0.00000000     0.00000000
 C      2   1   0     2.546856486862   126.75735284     0.00000000
 C      3   2   1     2.630079141173   123.13004757   177.12712379
 C      4   3   2     2.635251214622   118.74214340   359.75780948
 C      5   4   3     2.632000962591   118.70848325     0.19247675
 C      2   1   3     2.575118534374   114.96346755   177.15049173
 C      7   2   1     2.786369385649   114.35228557     3.05408546
 C      8   7   2     2.642122860745   124.03626705   176.60161441
 C      9   8   7     2.631981685705   119.60051559   179.97214777
 C     10   9   8     2.635267607165   118.69926003     0.00000000
 C     11  10   9     2.629924059606   118.74059653     0.07145037
 N     12  11  10     2.546760394563   123.14315273   359.83023510
 H     12  11  10     2.046692756229   120.62449281   180.11695458
 H     11  10   9     2.050021993215   121.50167099   180.02226083
 H     10   9   8     2.051346832005   120.36103901   179.94003725
 H      9   8   7     2.047857450352   120.51274728   359.68646925
 H      6   5   4     2.047837272545   119.88948301   180.20621747
 H      5   4   3     2.051375927043   120.93462802   180.22576414
 H      4   3   2     2.050063731415   119.75326972   179.86337979
 H      3   2   1     2.046862070255   116.25930748   356.87462425
 N      1   2   3     3.773813145489    95.33562591    93.40852864
 C     22   1   2     2.546837185038   126.65690616   358.20433824
 C     23  22   1     2.630042626214   123.12327768   177.71746278
 C     24  23  22     2.635207706067   118.74579420   359.72959317
 C     25  24  23     2.632009851909   118.70826700     0.10945605
 C     22   1   2     2.574788245102   115.06771407   175.78948743
 C     27  22   1     2.786283908720   114.34385607     2.32372274
 C     28  27  22     2.642066740613   124.02186540   176.98976324
 C     29  28  27     2.631984909879   119.59043647   179.63036289
 C     30  29  28     2.635082461662   118.70753197   359.95476662
 C     31  30  29     2.630054921285   118.73978584     0.24870235
 N     32  31  30     2.546681760156   123.13714071   359.70847973
 H     32  31  30     2.046740541378   120.64137952   179.98385054
 H     31  30  29     2.049998774955   121.50762842   180.12051818
 H     30  29  28     2.051391155554   120.35630947   179.95290244
 H     29  28  27     2.047897229168   120.54944245   359.37014294
 H     26  25  24     2.047851168193   119.90758667   180.32257641
 H     25  24  23     2.051385395979   120.92675572   180.18078138
 H     24  23  22     2.050016495266   119.75807873   179.81068311
 H     23  22   1     2.046964923608   116.27669564   357.46486598
 N      1   2   3     3.776594315209    95.16199336   357.82854638
 C     42   1   2     2.546636718556   126.75370871    93.70265156
 C     43  42   1     2.630055720179   123.14296659   177.77130442
 C     44  43  42     2.635274991516   118.73421359   359.78329974
 C     45  44  43     2.632069020581   118.70527433     0.12595371
 C     42   1   2     2.575060794245   114.98781852   271.37227399
 C     47  42   1     2.786371193558   114.39814378     2.23426919
 C     48  47  42     2.642355447887   124.05636499   177.26987550
 C     49  48  47     2.631995097310   119.58950299   179.67253012
 C     50  49  48     2.635167108228   118.71655752     0.02423923
 C     51  50  49     2.630028540814   118.73230182     0.12754897
 N     52  51  50     2.546795856958   123.13205536   359.76567945
 H     52  51  50     2.046856450162   120.59273712   180.05195858
 H     51  50  49     2.050035279743   121.50349072   180.06430249
 H     50  49  48     2.051402748401   120.35793908   179.96689650
 H     49  48  47     2.047910841972   120.53876830   359.48450709
 H     46  45  44     2.047850847232   119.89124220   180.22039519
 H     45  44  43     2.051402518944   120.93843535   180.15059241
 H     44  43  42     2.049997101635   119.75633371   179.82188669
 H     43  42   1     2.046689269194   116.22204759   357.46733326

---------------------
BASIS SET INFORMATION
---------------------
There are 4 groups of distinct atoms

 Group   1 Type Fe  : 22s16p4d1f contracted to 5s4p2d1f pattern {66631/6631/31/1}
 Group   2 Type N   : 10s4p1d contracted to 3s2p1d pattern {631/31/1}
 Group   3 Type C   : 10s4p1d contracted to 3s2p1d pattern {631/31/1}
 Group   4 Type H   : 4s contracted to 2s pattern {31}

Atom   0Fe   basis set group =>   1
Atom   1N    basis set group =>   2
Atom   2C    basis set group =>   3
Atom   3C    basis set group =>   3
Atom   4C    basis set group =>   3
Atom   5C    basis set group =>   3
Atom   6C    basis set group =>   3
Atom   7C    basis set group =>   3
Atom   8C    basis set group =>   3
Atom   9C    basis set group =>   3
Atom  10C    basis set group =>   3
Atom  11C    basis set group =>   3
Atom  12N    basis set group =>   2
Atom  13H    basis set group =>   4
Atom  14H    basis set group =>   4
Atom  15H    basis set group =>   4
Atom  16H    basis set group =>   4
Atom  17H    basis set group =>   4
Atom  18H    basis set group =>   4
Atom  19H    basis set group =>   4
Atom  20H    basis set group =>   4
Atom  21N    basis set group =>   2
Atom  22C    basis set group =>   3
Atom  23C    basis set group =>   3
Atom  24C    basis set group =>   3
Atom  25C    basis set group =>   3
Atom  26C    basis set group =>   3
Atom  27C    basis set group =>   3
Atom  28C    basis set group =>   3
Atom  29C    basis set group =>   3
Atom  30C    basis set group =>   3
Atom  31C    basis set group =>   3
Atom  32N    basis set group =>   2
Atom  33H    basis set group =>   4
Atom  34H    basis set group =>   4
Atom  35H    basis set group =>   4
Atom  36H    basis set group =>   4
Atom  37H    basis set group =>   4
Atom  38H    basis set group =>   4
Atom  39H    basis set group =>   4
Atom  40H    basis set group =>   4
Atom  41N    basis set group =>   2
Atom  42C    basis set group =>   3
Atom  43C    basis set group =>   3
Atom  44C    basis set group =>   3
Atom  45C    basis set group =>   3
Atom  46C    basis set group =>   3
Atom  47C    basis set group =>   3
Atom  48C    basis set group =>   3
Atom  49C    basis set group =>   3
Atom  50C    basis set group =>   3
Atom  51C    basis set group =>   3
Atom  52N    basis set group =>   2
Atom  53H    basis set group =>   4
Atom  54H    basis set group =>   4
Atom  55H    basis set group =>   4
Atom  56H    basis set group =>   4
Atom  57H    basis set group =>   4
Atom  58H    basis set group =>   4
Atom  59H    basis set group =>   4
Atom  60H    basis set group =>   4
---------------------------------
AUXILIARY/J BASIS SET INFORMATION
---------------------------------
There are 4 groups of distinct atoms

 Group   1 Type Fe  : 19s5p5d3f3g contracted to 8s5p5d2f3g pattern {121111111/11111/11111/21/111}
 Group   2 Type N   : 12s5p4d2f1g contracted to 6s4p3d1f1g pattern {711111/2111/211/2/1}
 Group   3 Type C   : 12s5p4d2f1g contracted to 6s4p3d1f1g pattern {711111/2111/211/2/1}
 Group   4 Type H   : 5s2p1d contracted to 3s1p1d pattern {311/2/1}

Atom   0Fe   basis set group =>   1
Atom   1N    basis set group =>   2
Atom   2C    basis set group =>   3
Atom   3C    basis set group =>   3
Atom   4C    basis set group =>   3
Atom   5C    basis set group =>   3
Atom   6C    basis set group =>   3
Atom   7C    basis set group =>   3
Atom   8C    basis set group =>   3
Atom   9C    basis set group =>   3
Atom  10C    basis set group =>   3
Atom  11C    basis set group =>   3
Atom  12N    basis set group =>   2
Atom  13H    basis set group =>   4
Atom  14H    basis set group =>   4
Atom  15H    basis set group =>   4
Atom  16H    basis set group =>   4
Atom  17H    basis set group =>   4
Atom  18H    basis set group =>   4
Atom  19H    basis set group =>   4
Atom  20H    basis set group =>   4
Atom  21N    basis set group =>   2
Atom  22C    basis set group =>   3
Atom  23C    basis set group =>   3
Atom  24C    basis set group =>   3
Atom  25C    basis set group =>   3
Atom  26C    basis set group =>   3
Atom  27C    basis set group =>   3
Atom  28C    basis set group =>   3
Atom  29C    basis set group =>   3
Atom  30C    basis set group =>   3
Atom  31C    basis set group =>   3
Atom  32N    basis set group =>   2
Atom  33H    basis set group =>   4
Atom  34H    basis set group =>   4
Atom  35H    basis set group =>   4
Atom  36H    basis set group =>   4
Atom  37H    basis set group =>   4
Atom  38H    basis set group =>   4
Atom  39H    basis set group =>   4
Atom  40H    basis set group =>   4
Atom  41N    basis set group =>   2
Atom  42C    basis set group =>   3
Atom  43C    basis set group =>   3
Atom  44C    basis set group =>   3
Atom  45C    basis set group =>   3
Atom  46C    basis set group =>   3
Atom  47C    basis set group =>   3
Atom  48C    basis set group =>   3
Atom  49C    basis set group =>   3
Atom  50C    basis set group =>   3
Atom  51C    basis set group =>   3
Atom  52N    basis set group =>   2
Atom  53H    basis set group =>   4
Atom  54H    basis set group =>   4
Atom  55H    basis set group =>   4
Atom  56H    basis set group =>   4
Atom  57H    basis set group =>   4
Atom  58H    basis set group =>   4
Atom  59H    basis set group =>   4
Atom  60H    basis set group =>   4


           ************************************************************
           *        Program running with 32 parallel MPI-processes    *
           *              working on a common directory               *
           ************************************************************
------------------------------------------------------------------------------
                           ORCA GTO INTEGRAL CALCULATION
                           -- RI-GTO INTEGRALS CHOSEN --
------------------------------------------------------------------------------
------------------------------------------------------------------------------
                   ___                                                        
                  /   \      - P O W E R E D   B Y -                         
                 /     \                                                     
                 |  |  |   _    _      __       _____    __    __             
                 |  |  |  | |  | |    /  \     |  _  \  |  |  /  |          
                  \  \/   | |  | |   /    \    | | | |  |  | /  /          
                 / \  \   | |__| |  /  /\  \   | |_| |  |  |/  /          
                |  |  |   |  __  | /  /__\  \  |    /   |      \           
                |  |  |   | |  | | |   __   |  |    \   |  |\   \          
                \     /   | |  | | |  |  |  |  | |\  \  |  | \   \       
                 \___/    |_|  |_| |__|  |__|  |_| \__\ |__|  \__/        
                                                                              
                      - O R C A' S   B I G   F R I E N D -                    
                                      &                                       
                       - I N T E G R A L  F E E D E R -                       
                                                                              
 v1 FN, 2020, v2 2021                                                         
------------------------------------------------------------------------------


Reading SHARK input file Fe_plus2_small_fc.orca.SHARKINP.tmp ... ok
----------------------
SHARK INTEGRAL PACKAGE
----------------------

Number of atoms                             ...     61
Number of basis functions                   ...    586
Number of shells                            ...    276
Maximum angular momentum                    ...      3
Integral batch strategy                     ... SHARK/LIBINT Hybrid
RI-J (if used) integral strategy            ... SPLIT-RIJ (Revised 2003 algorithm where possible)
Printlevel                                  ...      1
Contraction scheme used                     ... SEGMENTED contraction
Coulomb Range Separation                    ... NOT USED
Exchange Range Separation                   ... NOT USED
Finite Nucleus Model                        ... NOT USED
Auxiliary Coulomb fitting basis             ... AVAILABLE
   # of basis functions in Aux-J            ...   2117
   # of shells in Aux-J                     ...    683
   Maximum angular momentum in Aux-J        ...      4
Auxiliary J/K fitting basis                 ... NOT available
Auxiliary Correlation fitting basis         ... NOT available
Auxiliary 'external' fitting basis          ... NOT available
Integral threshold                          ...     1.000000e-10
Primitive cut-off                           ...     1.000000e-11
Primitive pair pre-selection threshold      ...     1.000000e-11

Calculating pre-screening integrals         ... done (  0.0 sec) Dimension = 276
Organizing shell pair data                  ... done (  0.8 sec)
Shell pair information
Total number of shell pairs                 ...     38226
Shell pairs after pre-screening             ...     26061
Total number of primitive shell pairs       ...    231772
Primitive shell pairs kept                  ...     78901
          la=0 lb=0:   8084 shell pairs
          la=1 lb=0:   9226 shell pairs
          la=1 lb=1:   2576 shell pairs
          la=2 lb=0:   3438 shell pairs
          la=2 lb=1:   2151 shell pairs
          la=2 lb=2:    348 shell pairs
          la=3 lb=0:    125 shell pairs
          la=3 lb=1:     76 shell pairs
          la=3 lb=2:     36 shell pairs
          la=3 lb=3:      1 shell pairs

Calculating one electron integrals          ... done (  0.0 sec)
Calculating RI/J V-Matrix + Cholesky decomp.... done (  1.2 sec)
Calculating Nuclear repulsion               ... done (  0.1 sec) ENN=   4857.985304924888 Eh

SHARK setup successfully completed in   3.2 seconds

Maximum memory used throughout the entire GTOINT-calculation: 47.7 MB


           ************************************************************
           *        Program running with 32 parallel MPI-processes    *
           *              working on a common directory               *
           ************************************************************
-------------------------------------------------------------------------------
                                 ORCA SCF
-------------------------------------------------------------------------------

------------
SCF SETTINGS
------------
Hamiltonian:
 Density Functional     Method          .... DFT(GTOs)
 Exchange Functional    Exchange        .... B88
   X-Alpha parameter    XAlpha          ....  0.666667
   Becke's b parameter  XBeta           ....  0.004200
 Correlation Functional Correlation     .... LYP
 LDA part of GGA corr.  LDAOpt          .... VWN-5
 Gradients option       PostSCFGGA      .... off
 Hybrid DFT is turned on
   Fraction HF Exchange ScalHFX         ....  0.200000
   Scaling of DF-GGA-X  ScalDFX         ....  0.720000
   Scaling of DF-GGA-C  ScalDFC         ....  0.810000
   Scaling of DF-LDA-C  ScalLDAC        ....  1.000000
   Perturbative correction              ....  0.000000
   Density functional embedding theory  .... OFF
   NL short-range parameter             ....  4.800000
 RI-approximation to the Coulomb term is turned on
   Number of AuxJ basis functions       .... 2117
   RIJ-COSX (HFX calculated with COS-X)).... on


General Settings:
 Integral files         IntName         .... Fe_plus2_small_fc.orca
 Hartree-Fock type      HFTyp           .... RHF
 Total Charge           Charge          ....    2
 Multiplicity           Mult            ....    1
 Number of Electrons    NEL             ....  270
 Basis Dimension        Dim             ....  586
 Nuclear Repulsion      ENuc            ....   4857.9853049249 Eh

Convergence Acceleration:
 DIIS                   CNVDIIS         .... on
   Start iteration      DIISMaxIt       ....    12
   Startup error        DIISStart       ....  0.200000
   # of expansion vecs  DIISMaxEq       ....     5
   Bias factor          DIISBfac        ....   1.050
   Max. coefficient     DIISMaxC        ....  10.000
 Trust-Rad. Augm. Hess. CNVTRAH         .... auto
   Auto Start mean grad. ratio tolernc. ....  1.125000
   Auto Start start iteration           ....    20
   Auto Start num. interpolation iter.  ....    10
   Max. Number of Micro iterations      ....    16
   Max. Number of Macro iterations      .... Maxiter - #DIIS iter
   Number of Davidson start vectors     ....     2
   Converg. threshold I  (grad. norm)   ....   5.000e-05
   Converg. threshold II (energy diff.) ....   1.000e-06
   Grad. Scal. Fac. for Micro threshold ....   0.100
   Minimum threshold for Micro iter.    ....   0.010
   NR start threshold (gradient norm)   ....   0.001
   Initial trust radius                 ....   0.400
   Minimum AH scaling param. (alpha)    ....   1.000
   Maximum AH scaling param. (alpha)    .... 1000.000
   Orbital update algorithm             .... Taylor
   White noise on init. David. guess    .... on
   Maximum white noise                  ....   0.010
   Quad. conv. algorithm                .... NR
 SOSCF                  CNVSOSCF        .... off
 Level Shifting         CNVShift        .... on
   Level shift para.    LevelShift      ....    0.2500
   Turn off err/grad.   ShiftErr        ....    0.0010
 Zerner damping         CNVZerner       .... off
 Static damping         CNVDamp         .... on
   Fraction old density DampFac         ....    0.7000
   Max. Damping (<1)    DampMax         ....    0.9800
   Min. Damping (>=0)   DampMin         ....    0.0000
   Turn off err/grad.   DampErr         ....    0.1000
 Fernandez-Rico         CNVRico         .... off

SCF Procedure:
 Maximum # iterations   MaxIter         ....   125
 SCF integral mode      SCFMode         .... Direct
   Integral package                     .... SHARK and LIBINT hybrid scheme
 Reset frequency        DirectResetFreq ....    20
 Integral Threshold     Thresh          ....  1.000e-10 Eh
 Primitive CutOff       TCut            ....  1.000e-11 Eh

Convergence Tolerance:
 Convergence Check Mode ConvCheckMode   .... Total+1el-Energy
 Convergence forced     ConvForced      .... 0
 Energy Change          TolE            ....  1.000e-06 Eh
 1-El. energy change                    ....  1.000e-03 Eh
 DIIS Error             TolErr          ....  1.000e-06


Diagonalization of the overlap matrix:
Smallest eigenvalue                        ... 5.521e-04
Time for diagonalization                   ...    0.140 sec
Threshold for overlap eigenvalues          ... 1.000e-08
Number of eigenvalues below threshold      ... 0
Time for construction of square roots      ...    0.304 sec
Total time needed                          ...    0.446 sec

Time for model grid setup =    1.163 sec

------------------------------
INITIAL GUESS: MODEL POTENTIAL
------------------------------
Loading Hartree-Fock densities                     ... done
Calculating cut-offs                               ... done
Initializing the effective Hamiltonian             ... done
Setting up the integral package (SHARK)            ... done
Starting the Coulomb interaction                   ... done (   0.4 sec)
Reading the grid                                   ... done
Mapping shells                                     ... done
Starting the XC term evaluation                    ... done (   0.1 sec)
  promolecular density results
     # of electrons  =    271.998557084
     EX              =   -255.451964879
     EC              =     -9.609942111
     EX+EC           =   -265.061906990
Transforming the Hamiltonian                       ... done (   0.1 sec)
Diagonalizing the Hamiltonian                      ... done (   0.1 sec)
Back transforming the eigenvectors                 ... done (   0.0 sec)
Now organizing SCF variables                       ... done
                      ------------------
                      INITIAL GUESS DONE (   2.1 sec)
                      ------------------
-------------------
DFT GRID GENERATION
-------------------

General Integration Accuracy     IntAcc      ... 4.388
Radial Grid Type                 RadialGrid  ... OptM3 with GC (2021)
Angular Grid (max. ang.)         AngularGrid ... 4 (Lebedev-302)
Angular grid pruning method      GridPruning ... 4 (adaptive)
Weight generation scheme         WeightScheme... Becke
Basis function cutoff            BFCut       ... 1.0000e-10
Integration weight cutoff        WCut        ... 1.0000e-14
Angular grids for H and He will be reduced by one unit
Partially contracted basis set               ... off
Rotationally invariant grid construction     ... off

Total number of grid points                  ...   299727
Total number of batches                      ...     4716
Average number of points per batch           ...       63
Average number of grid points per atom       ...     4914
Time for grid setup =    2.366 sec

--------------------
COSX GRID GENERATION
--------------------

GRIDX 1
-------
General Integration Accuracy     IntAcc      ... 3.816
Radial Grid Type                 RadialGrid  ... OptM3 with GC (2021)
Angular Grid (max. ang.)         AngularGrid ... 1 (Lebedev-50)
Angular grid pruning method      GridPruning ... 4 (adaptive)
Weight generation scheme         WeightScheme... Becke
Basis function cutoff            BFCut       ... 1.0000e-10
Integration weight cutoff        WCut        ... 1.0000e-14
Angular grids for H and He will be reduced by one unit
Partially contracted basis set               ... on
Rotationally invariant grid construction     ... off

Total number of grid points                  ...    37767
Total number of batches                      ...      614
Average number of points per batch           ...       61
Average number of grid points per atom       ...      619
UseSFitting                                  ... on

GRIDX 2
-------
General Integration Accuracy     IntAcc      ... 4.020
Radial Grid Type                 RadialGrid  ... OptM3 with GC (2021)
Angular Grid (max. ang.)         AngularGrid ... 2 (Lebedev-110)
Angular grid pruning method      GridPruning ... 4 (adaptive)
Weight generation scheme         WeightScheme... Becke
Basis function cutoff            BFCut       ... 1.0000e-10
Integration weight cutoff        WCut        ... 1.0000e-14
Angular grids for H and He will be reduced by one unit
Partially contracted basis set               ... on
Rotationally invariant grid construction     ... off

Total number of grid points                  ...    81648
Total number of batches                      ...     1311
Average number of points per batch           ...       62
Average number of grid points per atom       ...     1338
UseSFitting                                  ... on

GRIDX 3
-------
General Integration Accuracy     IntAcc      ... 4.338
Radial Grid Type                 RadialGrid  ... OptM3 with GC (2021)
Angular Grid (max. ang.)         AngularGrid ... 3 (Lebedev-194)
Angular grid pruning method      GridPruning ... 4 (adaptive)
Weight generation scheme         WeightScheme... Becke
Basis function cutoff            BFCut       ... 1.0000e-10
Integration weight cutoff        WCut        ... 1.0000e-14
Angular grids for H and He will be reduced by one unit
Partially contracted basis set               ... on
Rotationally invariant grid construction     ... off

Total number of grid points                  ...   177792
Total number of batches                      ...     2807
Average number of points per batch           ...       63
Average number of grid points per atom       ...     2915
UseSFitting                                  ... on

Time for X-Grid setup             =    5.265 sec

--------------
SCF ITERATIONS
--------------
ITER       Energy         Delta-E        Max-DP      RMS-DP      [F,P]     Damp
               ***  Starting incremental Fock matrix formation  ***
  0  -2747.8651338305   0.000000000000 0.06086307  0.00100427  0.1749508 0.7000
  1  -2748.1110073110  -0.245873480461 0.03206404  0.00067435  0.0654902 0.7000
                               ***Turning on DIIS***
  2  -2748.2194069878  -0.108399676806 0.08702547  0.00135999  0.0381552 0.0000
  3  -2748.3853888088  -0.165981820988 0.01582811  0.00020128  0.1239686 0.7000
  4  -2748.4071563593  -0.021767550478 0.03834559  0.00056807  0.0752422 0.0000
  5  -2748.4343008028  -0.027144443499 0.00901485  0.00012185  0.0287733 0.0000
  6  -2748.4364978375  -0.002197034737 0.00538631  0.00005746  0.0034996 0.0000
  7  -2748.4366647048  -0.000166867243 0.00237117  0.00002757  0.0087375 0.0000
  8  -2748.4368211437  -0.000156438977 0.00125494  0.00001660  0.0021789 0.0000
  9  -2748.4368631901  -0.000042046379 0.00087688  0.00001170  0.0024361 0.0000
 10  -2748.4368830537  -0.000019863564 0.00114819  0.00001618  0.0003336 0.0000
               *** Restarting incremental Fock matrix formation ***
                                   *** Resetting DIIS ***
 11  -2748.4368499879   0.000033065759 0.00174632  0.00001794  0.0009829 0.0000
 12  -2748.4368199075   0.000030080436 0.00092683  0.00000906  0.0045094 0.0000
 13  -2748.4368469147  -0.000027007215 0.00031815  0.00000358  0.0014080 0.0000
 14  -2748.4368511879  -0.000004273211 0.00030160  0.00000377  0.0004525 0.0000
 15  -2748.4368520224  -0.000000834506 0.00009746  0.00000105  0.0002939 0.0000
 16  -2748.4368523620  -0.000000339561 0.00001840  0.00000033  0.0000496 0.0000
 17  -2748.4368525187  -0.000000156736 0.00001812  0.00000024  0.0000468 0.0000
 18  -2748.4368525796  -0.000000060909 0.00000688  0.00000010  0.0000061 0.0000
 19  -2748.4368526419  -0.000000062242 0.00000689  0.00000008  0.0000115 0.0000
                 **** Energy Check signals convergence ****

               *****************************************************
               *                     SUCCESS                       *
               *           SCF CONVERGED AFTER  20 CYCLES          *
               *****************************************************

Old exchange energy                            =    -51.517565880 Eh
New exchange energy                            =    -51.517626776 Eh
Exchange energy change after final integration =     -0.000060896 Eh
Total energy after final integration           =  -2748.436913277 Eh
Final COS-X integration done in                =     5.339 sec

----------------
TOTAL SCF ENERGY
----------------

Total Energy       :        -2748.43691328 Eh          -74788.77060 eV

Components:
Nuclear Repulsion  :         4857.98530492 Eh          132192.50068 eV
Electronic Energy  :        -7606.42221820 Eh         -206981.27128 eV
One Electron Energy:       -13377.21842777 Eh         -364012.61946 eV
Two Electron Energy:         5770.79620957 Eh          157031.34818 eV
Max COSX asymmetry :            0.00000834 Eh               0.00023 eV

Virial components:
Potential Energy   :        -5485.58115378 Eh         -149270.25195 eV
Kinetic Energy     :         2737.14424050 Eh           74481.48135 eV
Virial Ratio       :            2.00412571


DFT components:
N(Alpha)           :      135.000382539480 electrons
N(Beta)            :      135.000382539480 electrons
N(Total)           :      270.000765078960 electrons
E(X)               :     -204.903876052632 Eh       
E(C)               :      -11.210322171934 Eh       
E(XC)              :     -216.114198224566 Eh       
DFET-embed. en.    :        0.000000000000 Eh       

---------------
SCF CONVERGENCE
---------------

  Last Energy change         ...    2.6103e-07  Tolerance :   1.0000e-06
  Last MAX-Density change    ...    0.0000e+00  Tolerance :   1.0000e-05
  Last RMS-Density change    ...    0.0000e+00  Tolerance :   1.0000e-06
  Last DIIS Error            ...    6.4181e-07  Tolerance :   1.0000e-06

             **** THE GBW FILE WAS UPDATED (Fe_plus2_small_fc.orca.gbw) ****
             **** DENSITY Fe_plus2_small_fc.orca.scfp WAS UPDATED ****
             **** ENERGY FILE WAS UPDATED (Fe_plus2_small_fc.orca.en.tmp) ****
             **** THE GBW FILE WAS UPDATED (Fe_plus2_small_fc.orca.gbw) ****
             **** DENSITY Fe_plus2_small_fc.orca.scfp WAS UPDATED ****
----------------
ORBITAL ENERGIES
----------------

  NO   OCC          E(Eh)            E(eV) 
   0   2.0000    -256.261278     -6973.2239 
   1   2.0000     -30.228506      -822.5595 
   2   2.0000     -26.093675      -710.0450 
   3   2.0000     -26.093660      -710.0446 
   4   2.0000     -26.090755      -709.9656 
   5   2.0000     -14.577678      -396.6788 
   6   2.0000     -14.577662      -396.6783 
   7   2.0000     -14.577634      -396.6776 
   8   2.0000     -14.577626      -396.6774 
   9   2.0000     -14.577610      -396.6769 
  10   2.0000     -14.577607      -396.6769 
  11   2.0000     -10.448441      -284.3165 
  12   2.0000     -10.448417      -284.3159 
  13   2.0000     -10.448369      -284.3146 
  14   2.0000     -10.448210      -284.3102 
  15   2.0000     -10.448193      -284.3098 
  16   2.0000     -10.448145      -284.3085 
  17   2.0000     -10.434121      -283.9269 
  18   2.0000     -10.434079      -283.9257 
  19   2.0000     -10.434064      -283.9253 
  20   2.0000     -10.434049      -283.9249 
  21   2.0000     -10.434039      -283.9246 
  22   2.0000     -10.434001      -283.9236 
  23   2.0000     -10.406523      -283.1759 
  24   2.0000     -10.406511      -283.1756 
  25   2.0000     -10.406492      -283.1750 
  26   2.0000     -10.406474      -283.1746 
  27   2.0000     -10.406437      -283.1736 
  28   2.0000     -10.406435      -283.1735 
  29   2.0000     -10.405207      -283.1401 
  30   2.0000     -10.405179      -283.1393 
  31   2.0000     -10.405140      -283.1383 
  32   2.0000     -10.405137      -283.1382 
  33   2.0000     -10.405110      -283.1374 
  34   2.0000     -10.405082      -283.1367 
  35   2.0000     -10.400008      -282.9986 
  36   2.0000     -10.399994      -282.9982 
  37   2.0000     -10.399954      -282.9971 
  38   2.0000     -10.399950      -282.9970 
  39   2.0000     -10.399922      -282.9963 
  40   2.0000     -10.399915      -282.9961 
  41   2.0000      -3.613154       -98.3189 
  42   2.0000      -2.385651       -64.9169 
  43   2.0000      -2.385634       -64.9164 
  44   2.0000      -2.378803       -64.7305 
  45   2.0000      -1.192214       -32.4418 
  46   2.0000      -1.183382       -32.2015 
  47   2.0000      -1.183350       -32.2006 
  48   2.0000      -1.159921       -31.5631 
  49   2.0000      -1.158091       -31.5133 
  50   2.0000      -1.158066       -31.5126 
  51   2.0000      -1.022513       -27.8240 
  52   2.0000      -1.018701       -27.7203 
  53   2.0000      -1.018672       -27.7195 
  54   2.0000      -1.012231       -27.5442 
  55   2.0000      -1.012193       -27.5432 
  56   2.0000      -1.011709       -27.5300 
  57   2.0000      -1.011016       -27.5111 
  58   2.0000      -1.010749       -27.5039 
  59   2.0000      -1.010718       -27.5030 
  60   2.0000      -0.955541       -26.0016 
  61   2.0000      -0.955498       -26.0004 
  62   2.0000      -0.955460       -25.9994 
  63   2.0000      -0.871276       -23.7086 
  64   2.0000      -0.871218       -23.7070 
  65   2.0000      -0.870457       -23.6863 
  66   2.0000      -0.861815       -23.4512 
  67   2.0000      -0.860546       -23.4166 
  68   2.0000      -0.860522       -23.4160 
  69   2.0000      -0.829578       -22.5740 
  70   2.0000      -0.829527       -22.5726 
  71   2.0000      -0.828829       -22.5536 
  72   2.0000      -0.817045       -22.2329 
  73   2.0000      -0.814702       -22.1692 
  74   2.0000      -0.814670       -22.1683 
  75   2.0000      -0.765887       -20.8409 
  76   2.0000      -0.751999       -20.4629 
  77   2.0000      -0.751926       -20.4609 
  78   2.0000      -0.713417       -19.4131 
  79   2.0000      -0.713366       -19.4117 
  80   2.0000      -0.713105       -19.4046 
  81   2.0000      -0.712147       -19.3785 
  82   2.0000      -0.711859       -19.3707 
  83   2.0000      -0.711811       -19.3693 
  84   2.0000      -0.691352       -18.8126 
  85   2.0000      -0.689968       -18.7750 
  86   2.0000      -0.689905       -18.7733 
  87   2.0000      -0.678361       -18.4591 
  88   2.0000      -0.677553       -18.4371 
  89   2.0000      -0.677538       -18.4368 
  90   2.0000      -0.662602       -18.0303 
  91   2.0000      -0.661298       -17.9948 
  92   2.0000      -0.661174       -17.9914 
  93   2.0000      -0.654010       -17.7965 
  94   2.0000      -0.653886       -17.7932 
  95   2.0000      -0.651063       -17.7163 
  96   2.0000      -0.642161       -17.4741 
  97   2.0000      -0.639288       -17.3959 
  98   2.0000      -0.639274       -17.3955 
  99   2.0000      -0.634171       -17.2567 
 100   2.0000      -0.620604       -16.8875 
 101   2.0000      -0.620542       -16.8858 
 102   2.0000      -0.615676       -16.7534 
 103   2.0000      -0.615641       -16.7524 
 104   2.0000      -0.615072       -16.7369 
 105   2.0000      -0.612297       -16.6615 
 106   2.0000      -0.600892       -16.3511 
 107   2.0000      -0.600810       -16.3489 
 108   2.0000      -0.583105       -15.8671 
 109   2.0000      -0.583040       -15.8653 
 110   2.0000      -0.582366       -15.8470 
 111   2.0000      -0.574524       -15.6336 
 112   2.0000      -0.574468       -15.6321 
 113   2.0000      -0.574331       -15.6283 
 114   2.0000      -0.555733       -15.1223 
 115   2.0000      -0.538093       -14.6423 
 116   2.0000      -0.538043       -14.6409 
 117   2.0000      -0.526637       -14.3305 
 118   2.0000      -0.526597       -14.3294 
 119   2.0000      -0.519396       -14.1335 
 120   2.0000      -0.512385       -13.9427 
 121   2.0000      -0.512319       -13.9409 
 122   2.0000      -0.511724       -13.9247 
 123   2.0000      -0.508253       -13.8303 
 124   2.0000      -0.502119       -13.6633 
 125   2.0000      -0.502087       -13.6625 
 126   2.0000      -0.495673       -13.4879 
 127   2.0000      -0.494365       -13.4523 
 128   2.0000      -0.494295       -13.4505 
 129   2.0000      -0.451512       -12.2863 
 130   2.0000      -0.449019       -12.2184 
 131   2.0000      -0.449004       -12.2180 
 132   2.0000      -0.409033       -11.1303 
 133   2.0000      -0.408947       -11.1280 
 134   2.0000      -0.406104       -11.0507 
 135   0.0000      -0.271878        -7.3982 
 136   0.0000      -0.271848        -7.3974 
 137   0.0000      -0.271735        -7.3943 
 138   0.0000      -0.245435        -6.6786 
 139   0.0000      -0.234048        -6.3688 
 140   0.0000      -0.234012        -6.3678 
 141   0.0000      -0.233603        -6.3566 
 142   0.0000      -0.228844        -6.2272 
 143   0.0000      -0.228837        -6.2270 
 144   0.0000      -0.188810        -5.1378 
 145   0.0000      -0.188681        -5.1343 
 146   0.0000      -0.185073        -5.0361 
 147   0.0000      -0.179224        -4.8769 
 148   0.0000      -0.179213        -4.8766 
 149   0.0000      -0.120002        -3.2654 
 150   0.0000      -0.112287        -3.0555 
 151   0.0000      -0.112180        -3.0526 
 152   0.0000      -0.112150        -3.0518 
 153   0.0000      -0.098075        -2.6687 
 154   0.0000      -0.098020        -2.6673 
 155   0.0000      -0.089302        -2.4300 
 156   0.0000      -0.083254        -2.2654 
 157   0.0000      -0.083092        -2.2610 
 158   0.0000      -0.082277        -2.2389 
 159   0.0000      -0.074875        -2.0375 
 160   0.0000      -0.074823        -2.0360 
 161   0.0000      -0.055933        -1.5220 
 162   0.0000      -0.055613        -1.5133 
 163   0.0000      -0.055464        -1.5093 
 164   0.0000      -0.047633        -1.2962 
 165   0.0000      -0.042158        -1.1472 
 166   0.0000      -0.039849        -1.0843 
 167   0.0000      -0.039810        -1.0833 
 168   0.0000      -0.037443        -1.0189 
 169   0.0000      -0.037275        -1.0143 
 170   0.0000      -0.030744        -0.8366 
 171   0.0000      -0.027696        -0.7537 
 172   0.0000      -0.027628        -0.7518 
 173   0.0000      -0.020786        -0.5656 
 174   0.0000      -0.013085        -0.3561 
 175   0.0000      -0.013048        -0.3551 
 176   0.0000       0.000912         0.0248 
 177   0.0000       0.001164         0.0317 
 178   0.0000       0.009353         0.2545 
 179   0.0000       0.025081         0.6825 
 180   0.0000       0.033655         0.9158 
 181   0.0000       0.034469         0.9380 
 182   0.0000       0.034534         0.9397 
 183   0.0000       0.035836         0.9752 
 184   0.0000       0.035907         0.9771 
 185   0.0000       0.040897         1.1129 
 186   0.0000       0.043816         1.1923 
 187   0.0000       0.043846         1.1931 
 188   0.0000       0.065584         1.7846 
 189   0.0000       0.072271         1.9666 
 190   0.0000       0.072304         1.9675 
 191   0.0000       0.079196         2.1550 
 192   0.0000       0.079756         2.1703 
 193   0.0000       0.079802         2.1715 
 194   0.0000       0.081179         2.2090 
 195   0.0000       0.089384         2.4323 
 196   0.0000       0.094922         2.5830 
 197   0.0000       0.094956         2.5839 
 198   0.0000       0.098907         2.6914 
 199   0.0000       0.102461         2.7881 
 200   0.0000       0.102482         2.7887 
 201   0.0000       0.119748         3.2585 
 202   0.0000       0.145730         3.9655 
 203   0.0000       0.145895         3.9700 
 204   0.0000       0.157266         4.2794 
 205   0.0000       0.164506         4.4764 
 206   0.0000       0.164601         4.4790 
 207   0.0000       0.182327         4.9614 
 208   0.0000       0.183879         5.0036 
 209   0.0000       0.186033         5.0622 
 210   0.0000       0.186046         5.0626 
 211   0.0000       0.238746         6.4966 
 212   0.0000       0.239006         6.5037 
 213   0.0000       0.243097         6.6150 
 214   0.0000       0.255650         6.9566 
 215   0.0000       0.255742         6.9591 
 216   0.0000       0.275802         7.5050 
 217   0.0000       0.275951         7.5090 
 218   0.0000       0.278595         7.5809 
 219   0.0000       0.281694         7.6653 
 220   0.0000       0.291701         7.9376 
 221   0.0000       0.294681         8.0187 
 222   0.0000       0.295763         8.0481 
 223   0.0000       0.295952         8.0533 
 224   0.0000       0.308589         8.3971 
 225   0.0000       0.320068         8.7095 
 226   0.0000       0.320383         8.7181 
 227   0.0000       0.328095         8.9279 
 228   0.0000       0.329667         8.9707 
 229   0.0000       0.329862         8.9760 
 230   0.0000       0.334452         9.1009 
 231   0.0000       0.336607         9.1595 
 232   0.0000       0.336825         9.1655 
 233   0.0000       0.346729         9.4350 
 234   0.0000       0.346916         9.4401 
 235   0.0000       0.355013         9.6604 
 236   0.0000       0.361012         9.8236 
 237   0.0000       0.361265         9.8305 
 238   0.0000       0.363549         9.8927 
 239   0.0000       0.377831        10.2813 
 240   0.0000       0.378000        10.2859 
 241   0.0000       0.380246        10.3470 
 242   0.0000       0.380458        10.3528 
 243   0.0000       0.380507        10.3541 
 244   0.0000       0.386645        10.5212 
 245   0.0000       0.386773        10.5246 
 246   0.0000       0.388817        10.5802 
 247   0.0000       0.395600        10.7648 
 248   0.0000       0.398680        10.8486 
 249   0.0000       0.398742        10.8503 
 250   0.0000       0.403582        10.9820 
 251   0.0000       0.403643        10.9837 
 252   0.0000       0.403934        10.9916 
 253   0.0000       0.403990        10.9931 
 254   0.0000       0.407319        11.0837 
 255   0.0000       0.407417        11.0864 
 256   0.0000       0.407972        11.1015 
 257   0.0000       0.408020        11.1028 
 258   0.0000       0.408305        11.1105 
 259   0.0000       0.417979        11.3738 
 260   0.0000       0.418541        11.3891 
 261   0.0000       0.418564        11.3897 
 262   0.0000       0.424960        11.5638 
 263   0.0000       0.427649        11.6369 
 264   0.0000       0.427749        11.6396 
 265   0.0000       0.434961        11.8359 
 266   0.0000       0.435028        11.8377 
 267   0.0000       0.436390        11.8748 
 268   0.0000       0.444217        12.0878 
 269   0.0000       0.474337        12.9074 
 270   0.0000       0.474689        12.9169 
 271   0.0000       0.474930        12.9235 
 272   0.0000       0.487976        13.2785 
 273   0.0000       0.488237        13.2856 
 274   0.0000       0.491831        13.3834 
 275   0.0000       0.517522        14.0825 
 276   0.0000       0.518106        14.0984 
 277   0.0000       0.534974        14.5574 
 278   0.0000       0.539053        14.6684 
 279   0.0000       0.539449        14.6791 
 280   0.0000       0.545546        14.8451 
 281   0.0000       0.548342        14.9211 
 282   0.0000       0.548674        14.9302 
 283   0.0000       0.590870        16.0784 
 284   0.0000       0.591687        16.1006 
 285   0.0000       0.596251        16.2248 
 286   0.0000       0.600096        16.3294 
 287   0.0000       0.603897        16.4329 
 288   0.0000       0.604510        16.4496 
 289   0.0000       0.612682        16.6719 
 290   0.0000       0.621078        16.9004 
 291   0.0000       0.622031        16.9263 
 292   0.0000       0.631213        17.1762 
 293   0.0000       0.631394        17.1811 
 294   0.0000       0.632119        17.2008 
 295   0.0000       0.644846        17.5471 
 296   0.0000       0.645007        17.5515 
 297   0.0000       0.645048        17.5526 
 298   0.0000       0.647401        17.6167 
 299   0.0000       0.650173        17.6921 
 300   0.0000       0.662077        18.0160 
 301   0.0000       0.662370        18.0240 
 302   0.0000       0.666652        18.1405 
 303   0.0000       0.666831        18.1454 
 304   0.0000       0.673936        18.3387 
 305   0.0000       0.673996        18.3404 
 306   0.0000       0.682243        18.5648 
 307   0.0000       0.682687        18.5769 
 308   0.0000       0.685260        18.6469 
 309   0.0000       0.685521        18.6540 
 310   0.0000       0.692251        18.8371 
 311   0.0000       0.692570        18.8458 
 312   0.0000       0.698008        18.9938 
 313   0.0000       0.713079        19.4039 
 314   0.0000       0.717640        19.5280 
 315   0.0000       0.717873        19.5343 
 316   0.0000       0.733819        19.9682 
 317   0.0000       0.740558        20.1516 
 318   0.0000       0.744489        20.2586 
 319   0.0000       0.744975        20.2718 
 320   0.0000       0.749986        20.4082 
 321   0.0000       0.750096        20.4112 
 322   0.0000       0.765782        20.8380 
 323   0.0000       0.785331        21.3699 
 324   0.0000       0.785471        21.3738 
 325   0.0000       0.798738        21.7348 
 326   0.0000       0.799356        21.7516 
 327   0.0000       0.810478        22.0542 
 328   0.0000       0.813601        22.1392 
 329   0.0000       0.817659        22.2496 
 330   0.0000       0.818054        22.2604 
 331   0.0000       0.821299        22.3487 
 332   0.0000       0.821528        22.3549 
 333   0.0000       0.834473        22.7072 
 334   0.0000       0.854853        23.2617 
 335   0.0000       0.855068        23.2676 
 336   0.0000       0.867140        23.5961 
 337   0.0000       0.872374        23.7385 
 338   0.0000       0.879380        23.9292 
 339   0.0000       0.879537        23.9334 
 340   0.0000       0.884048        24.0562 
 341   0.0000       0.884662        24.0729 
 342   0.0000       0.909616        24.7519 
 343   0.0000       0.909926        24.7603 
 344   0.0000       0.918014        24.9804 
 345   0.0000       0.918309        24.9885 
 346   0.0000       0.918415        24.9914 
 347   0.0000       0.943998        25.6875 
 348   0.0000       0.947900        25.7937 
 349   0.0000       0.948230        25.8026 
 350   0.0000       0.963440        26.2165 
 351   0.0000       0.969852        26.3910 
 352   0.0000       0.986831        26.8530 
 353   0.0000       0.987212        26.8634 
 354   0.0000       0.992322        27.0024 
 355   0.0000       0.992405        27.0047 
 356   0.0000       1.009337        27.4655 
 357   0.0000       1.014327        27.6012 
 358   0.0000       1.014550        27.6073 
 359   0.0000       1.018554        27.7163 
 360   0.0000       1.018986        27.7280 
 361   0.0000       1.022607        27.8265 
 362   0.0000       1.029892        28.0248 
 363   0.0000       1.037783        28.2395 
 364   0.0000       1.037816        28.2404 
 365   0.0000       1.039391        28.2833 
 366   0.0000       1.044648        28.4263 
 367   0.0000       1.046013        28.4634 
 368   0.0000       1.046337        28.4723 
 369   0.0000       1.054734        28.7008 
 370   0.0000       1.083446        29.4821 
 371   0.0000       1.083562        29.4852 
 372   0.0000       1.098636        29.8954 
 373   0.0000       1.112260        30.2661 
 374   0.0000       1.112957        30.2851 
 375   0.0000       1.139539        31.0084 
 376   0.0000       1.140060        31.0226 
 377   0.0000       1.173856        31.9422 
 378   0.0000       1.174725        31.9659 
 379   0.0000       1.178135        32.0587 
 380   0.0000       1.187302        32.3081 
 381   0.0000       1.210392        32.9364 
 382   0.0000       1.212079        32.9823 
 383   0.0000       1.212535        32.9948 
 384   0.0000       1.223295        33.2876 
 385   0.0000       1.223530        33.2939 
 386   0.0000       1.228641        33.4330 
 387   0.0000       1.239489        33.7282 
 388   0.0000       1.246766        33.9262 
 389   0.0000       1.246865        33.9289 
 390   0.0000       1.257987        34.2316 
 391   0.0000       1.258094        34.2345 
 392   0.0000       1.258897        34.2563 
 393   0.0000       1.260154        34.2905 
 394   0.0000       1.267829        34.4994 
 395   0.0000       1.267903        34.5014 
 396   0.0000       1.268619        34.5209 
 397   0.0000       1.268812        34.5261 
 398   0.0000       1.269097        34.5339 
 399   0.0000       1.281651        34.8755 
 400   0.0000       1.281755        34.8783 
 401   0.0000       1.282546        34.8998 
 402   0.0000       1.283091        34.9147 
 403   0.0000       1.283276        34.9197 
 404   0.0000       1.287534        35.0356 
 405   0.0000       1.299618        35.3644 
 406   0.0000       1.303196        35.4618 
 407   0.0000       1.303408        35.4675 
 408   0.0000       1.312011        35.7016 
 409   0.0000       1.312164        35.7058 
 410   0.0000       1.320868        35.9426 
 411   0.0000       1.334930        36.3253 
 412   0.0000       1.335231        36.3335 
 413   0.0000       1.336520        36.3686 
 414   0.0000       1.409847        38.3639 
 415   0.0000       1.469199        39.9789 
 416   0.0000       1.476058        40.1656 
 417   0.0000       1.476321        40.1727 
 418   0.0000       1.496559        40.7234 
 419   0.0000       1.497217        40.7413 
 420   0.0000       1.509511        41.0759 
 421   0.0000       1.511489        41.1297 
 422   0.0000       1.511752        41.1369 
 423   0.0000       1.542229        41.9662 
 424   0.0000       1.570937        42.7474 
 425   0.0000       1.571596        42.7653 
 426   0.0000       1.579832        42.9894 
 427   0.0000       1.585485        43.1432 
 428   0.0000       1.585556        43.1452 
 429   0.0000       1.594507        43.3887 
 430   0.0000       1.594872        43.3987 
 431   0.0000       1.595371        43.4123 
 432   0.0000       1.600650        43.5559 
 433   0.0000       1.601170        43.5701 
 434   0.0000       1.608091        43.7584 
 435   0.0000       1.612641        43.8822 
 436   0.0000       1.612990        43.8917 
 437   0.0000       1.651814        44.9481 
 438   0.0000       1.664161        45.2841 
 439   0.0000       1.664223        45.2858 
 440   0.0000       1.664283        45.2875 
 441   0.0000       1.686724        45.8981 
 442   0.0000       1.694251        46.1029 
 443   0.0000       1.694500        46.1097 
 444   0.0000       1.708604        46.4935 
 445   0.0000       1.708858        46.5004 
 446   0.0000       1.719876        46.8002 
 447   0.0000       1.719892        46.8006 
 448   0.0000       1.720243        46.8102 
 449   0.0000       1.726031        46.9677 
 450   0.0000       1.734765        47.2054 
 451   0.0000       1.734894        47.2089 
 452   0.0000       1.749608        47.6093 
 453   0.0000       1.771754        48.2119 
 454   0.0000       1.787332        48.6358 
 455   0.0000       1.787540        48.6414 
 456   0.0000       1.789407        48.6922 
 457   0.0000       1.808829        49.2207 
 458   0.0000       1.809008        49.2256 
 459   0.0000       1.842765        50.1442 
 460   0.0000       1.854554        50.4650 
 461   0.0000       1.854933        50.4753 
 462   0.0000       1.868416        50.8422 
 463   0.0000       1.868459        50.8434 
 464   0.0000       1.875198        51.0267 
 465   0.0000       1.876098        51.0512 
 466   0.0000       1.876285        51.0563 
 467   0.0000       1.883938        51.2646 
 468   0.0000       1.910282        51.9814 
 469   0.0000       1.910824        51.9962 
 470   0.0000       1.910892        51.9980 
 471   0.0000       1.914132        52.0862 
 472   0.0000       1.937257        52.7155 
 473   0.0000       1.937425        52.7200 
 474   0.0000       1.957222        53.2587 
 475   0.0000       1.957392        53.2633 
 476   0.0000       1.960201        53.3398 
 477   0.0000       1.963732        53.4359 
 478   0.0000       1.969490        53.5925 
 479   0.0000       1.969715        53.5987 
 480   0.0000       1.972152        53.6650 
 481   0.0000       1.978474        53.8370 
 482   0.0000       1.978722        53.8438 
 483   0.0000       1.986963        54.0680 
 484   0.0000       1.987093        54.0716 
 485   0.0000       1.988651        54.1140 
 486   0.0000       1.993544        54.2471 
 487   0.0000       2.003199        54.5098 
 488   0.0000       2.006577        54.6017 
 489   0.0000       2.006601        54.6024 
 490   0.0000       2.008359        54.6502 
 491   0.0000       2.040160        55.5156 
 492   0.0000       2.040176        55.5160 
 493   0.0000       2.055344        55.9287 
 494   0.0000       2.055706        55.9386 
 495   0.0000       2.065332        56.2006 
 496   0.0000       2.070225        56.3337 
 497   0.0000       2.070345        56.3370 
 498   0.0000       2.072937        56.4075 
 499   0.0000       2.090650        56.8895 
 500   0.0000       2.090969        56.8982 
 501   0.0000       2.095816        57.0301 
 502   0.0000       2.095855        57.0311 
 503   0.0000       2.102777        57.2195 
 504   0.0000       2.106424        57.3187 
 505   0.0000       2.123026        57.7705 
 506   0.0000       2.142704        58.3059 
 507   0.0000       2.148075        58.4521 
 508   0.0000       2.148108        58.4530 
 509   0.0000       2.159622        58.7663 
 510   0.0000       2.160126        58.7800 
 511   0.0000       2.169746        59.0418 
 512   0.0000       2.214041        60.2471 
 513   0.0000       2.217688        60.3464 
 514   0.0000       2.218172        60.3595 
 515   0.0000       2.249946        61.2241 
 516   0.0000       2.250179        61.2305 
 517   0.0000       2.264354        61.6162 
 518   0.0000       2.296115        62.4805 
 519   0.0000       2.296477        62.4903 
 520   0.0000       2.314492        62.9805 
 521   0.0000       2.317607        63.0653 
 522   0.0000       2.317737        63.0688 
 523   0.0000       2.333346        63.4936 
 524   0.0000       2.333430        63.4958 
 525   0.0000       2.342630        63.7462 
 526   0.0000       2.366261        64.3892 
 527   0.0000       2.366398        64.3930 
 528   0.0000       2.375448        64.6392 
 529   0.0000       2.387658        64.9715 
 530   0.0000       2.424386        65.9709 
 531   0.0000       2.425532        66.0021 
 532   0.0000       2.425939        66.0132 
 533   0.0000       2.430265        66.1309 
 534   0.0000       2.430484        66.1368 
 535   0.0000       2.431188        66.1560 
 536   0.0000       2.440245        66.4024 
 537   0.0000       2.458938        66.9111 
 538   0.0000       2.459163        66.9172 
 539   0.0000       2.473160        67.2981 
 540   0.0000       2.473252        67.3006 
 541   0.0000       2.479469        67.4698 
 542   0.0000       2.479865        67.4806 
 543   0.0000       2.480803        67.5061 
 544   0.0000       2.480971        67.5107 
 545   0.0000       2.497519        67.9609 
 546   0.0000       2.497748        67.9672 
 547   0.0000       2.497794        67.9684 
 548   0.0000       2.501458        68.0681 
 549   0.0000       2.501959        68.0818 
 550   0.0000       2.521813        68.6220 
 551   0.0000       2.525975        68.7353 
 552   0.0000       2.526152        68.7401 
 553   0.0000       2.535618        68.9977 
 554   0.0000       2.586064        70.3704 
 555   0.0000       2.586316        70.3772 
 556   0.0000       2.590461        70.4900 
 557   0.0000       2.590576        70.4932 
 558   0.0000       2.613906        71.1280 
 559   0.0000       2.614729        71.1504 
 560   0.0000       2.641456        71.8777 
 561   0.0000       2.644485        71.9601 
 562   0.0000       2.644857        71.9702 
 563   0.0000       2.671002        72.6816 
 564   0.0000       2.671127        72.6851 
 565   0.0000       2.687899        73.1415 
 566   0.0000       2.704919        73.6046 
 567   0.0000       2.705299        73.6149 
 568   0.0000       2.729694        74.2787 
 569   0.0000       2.732676        74.3599 
 570   0.0000       2.732883        74.3655 
 571   0.0000       2.800776        76.2130 
 572   0.0000       2.801535        76.2337 
 573   0.0000       2.827094        76.9291 
 574   0.0000       2.835189        77.1494 
 575   0.0000       2.835889        77.1685 
 576   0.0000       2.882616        78.4400 
 577   0.0000       3.057864        83.2087 
 578   0.0000       3.073373        83.6307 
 579   0.0000       3.073593        83.6367 
 580   0.0000       3.128225        85.1233 
 581   0.0000       3.158742        85.9537 
 582   0.0000       3.158917        85.9585 
 583   0.0000       3.289681        89.5168 
 584   0.0000       3.289765        89.5190 
 585   0.0000       3.293780        89.6283 

                    ********************************
                    * MULLIKEN POPULATION ANALYSIS *
                    ********************************

-----------------------
MULLIKEN ATOMIC CHARGES
-----------------------
   0 Fe:    1.026570
   1 N :   -0.532267
   2 C :    0.022520
   3 C :   -0.120513
   4 C :   -0.104158
   5 C :   -0.154794
   6 C :    0.264454
   7 C :    0.263366
   8 C :   -0.154632
   9 C :   -0.104441
  10 C :   -0.120122
  11 C :    0.022722
  12 N :   -0.532048
  13 H :    0.188578
  14 H :    0.199366
  15 H :    0.207797
  16 H :    0.191220
  17 H :    0.191250
  18 H :    0.207820
  19 H :    0.199373
  20 H :    0.188563
  21 N :   -0.532469
  22 C :    0.022572
  23 C :   -0.120099
  24 C :   -0.104537
  25 C :   -0.154501
  26 C :    0.264080
  27 C :    0.263869
  28 C :   -0.154861
  29 C :   -0.104286
  30 C :   -0.120376
  31 C :    0.022822
  32 N :   -0.531949
  33 H :    0.188550
  34 H :    0.199434
  35 H :    0.207846
  36 H :    0.191358
  37 H :    0.191205
  38 H :    0.207825
  39 H :    0.199390
  40 H :    0.188848
  41 N :   -0.532049
  42 C :    0.022491
  43 C :   -0.120356
  44 C :   -0.104454
  45 C :   -0.154677
  46 C :    0.264436
  47 C :    0.264418
  48 C :   -0.154796
  49 C :   -0.104484
  50 C :   -0.120191
  51 C :    0.022433
  52 N :   -0.532440
  53 H :    0.188652
  54 H :    0.199382
  55 H :    0.207819
[...]
101:   1063.30   0.000000    0.00  0.000000  (-0.000075  0.000226 -0.000027)
102:   1093.83   0.000003    0.02  0.000001  ( 0.000780 -0.000529  0.000100)
103:   1094.06   0.000253    1.28  0.000072  ( 0.003224  0.007855 -0.000324)
104:   1094.13   0.000255    1.29  0.000073  ( 0.007777 -0.003157  0.001521)
105:   1099.44   0.000031    0.16  0.000009  (-0.002704 -0.001254 -0.000131)
106:   1099.46   0.000037    0.18  0.000010  ( 0.001281 -0.002859  0.000739)
107:   1100.83   0.000473    2.39  0.000134  (-0.001606  0.001197  0.011405)
108:   1139.14   0.000421    2.13  0.000115  ( 0.006600 -0.008286  0.001734)
109:   1139.20   0.000441    2.23  0.000121  ( 0.008484  0.006973  0.000493)
110:   1139.76   0.000002    0.01  0.000001  ( 0.000797  0.000068  0.000078)
111:   1154.40   0.000023    0.11  0.000006  ( 0.002448  0.000212  0.000207)
112:   1154.42   0.000024    0.12  0.000006  (-0.000318  0.002486 -0.000350)
113:   1155.43   0.000002    0.01  0.000000  ( 0.000147 -0.000175 -0.000646)
114:   1197.91   0.000926    4.68  0.000241  (-0.001565  0.015392 -0.001410)
115:   1198.02   0.001101    5.56  0.000287  ( 0.015452  0.000816 -0.006874)
116:   1198.36   0.002382   12.04  0.000620  ( 0.001736  0.002685  0.024702)
117:   1209.38   0.000739    3.73  0.000191  (-0.012653 -0.005391 -0.001218)
118:   1209.51   0.000752    3.80  0.000194  (-0.005355  0.012653 -0.002273)
119:   1210.07   0.000015    0.07  0.000004  ( 0.000923  0.001703 -0.000030)
120:   1300.85   0.001325    6.70  0.000318  (-0.017509  0.001185 -0.003159)
121:   1300.92   0.001325    6.70  0.000318  (-0.001418 -0.017709  0.001486)
122:   1302.37   0.002543   12.85  0.000609  ( 0.003835 -0.002330 -0.024273)
123:   1303.54   0.000009    0.05  0.000002  ( 0.000962  0.001109 -0.000241)
124:   1303.60   0.000015    0.07  0.000004  ( 0.001598 -0.000865 -0.000449)
125:   1309.13   0.000000    0.00  0.000000  ( 0.000201 -0.000070 -0.000106)
126:   1323.63   0.000003    0.01  0.000001  ( 0.000159 -0.000774  0.000208)
127:   1324.06   0.000129    0.65  0.000030  (-0.000144 -0.005476  0.000641)
128:   1324.14   0.000129    0.65  0.000030  ( 0.005456 -0.000105  0.000829)
129:   1349.45   0.000207    1.05  0.000048  (-0.002284  0.006507 -0.000612)
130:   1349.53   0.000216    1.09  0.000050  ( 0.006550  0.002635  0.000264)
131:   1349.68   0.000012    0.06  0.000003  (-0.000879 -0.001396  0.000213)
132:   1350.57   0.000491    2.48  0.000113  ( 0.010590 -0.000513  0.000965)
133:   1350.60   0.000469    2.37  0.000108  (-0.000095 -0.010403  0.000332)
134:   1351.62   0.001995   10.08  0.000461  ( 0.002578 -0.001736 -0.021234)
135:   1472.61   0.000002    0.01  0.000000  ( 0.000211 -0.000530  0.000173)
136:   1474.72   0.005165   26.10  0.001093  ( 0.002757 -0.032745  0.003625)
137:   1474.75   0.005099   25.77  0.001079  ( 0.032384  0.003484  0.004256)
138:   1487.61   0.004495   22.72  0.000943  (-0.012663 -0.027844  0.002700)
139:   1487.62   0.004506   22.77  0.000945  (-0.027907  0.012255 -0.004035)
140:   1487.94   0.012964   65.51  0.002719  ( 0.006310 -0.005761 -0.051438)
141:   1511.72   0.017784   89.87  0.003671  (-0.008367  0.005609  0.059746)
142:   1517.21   0.004129   20.87  0.000849  ( 0.026733  0.011286  0.002687)
143:   1517.24   0.004179   21.12  0.000860  ( 0.011222 -0.026764  0.004161)
144:   1531.57   0.000000    0.00  0.000000  (-0.000181  0.000180 -0.000025)
145:   1532.01   0.000013    0.07  0.000003  (-0.000081  0.001626 -0.000130)
146:   1532.05   0.000014    0.07  0.000003  ( 0.001648 -0.000041  0.000386)
147:   1615.07   0.000807    4.08  0.000156  (-0.001914  0.012251 -0.001458)
148:   1615.19   0.000758    3.83  0.000146  ( 0.011979 -0.000256  0.001690)
149:   1615.30   0.000309    1.56  0.000060  ( 0.005556  0.005367  0.000310)
150:   1623.38   0.000404    2.04  0.000078  ( 0.008359  0.002321  0.001564)
151:   1623.49   0.000408    2.06  0.000078  ( 0.002164 -0.008432  0.001628)
152:   1624.51   0.000617    3.12  0.000119  ( 0.002050 -0.001247 -0.010621)
153:   1651.53   0.005381   27.19  0.001017  (-0.029469  0.011179 -0.004839)
154:   1651.58   0.005380   27.19  0.001017  (-0.012257 -0.029407  0.001239)
155:   1651.89   0.000153    0.77  0.000029  ( 0.000881 -0.005291  0.000426)
156:   1656.18   0.002385   12.05  0.000449  (-0.002449  0.001812  0.020977)
157:   1658.73   0.001393    7.04  0.000262  ( 0.008655  0.013679 -0.000014)
158:   1658.77   0.001394    7.04  0.000262  ( 0.013102 -0.009053  0.002930)
159:   3221.86   0.000217    1.10  0.000021  ( 0.001669  0.002311 -0.003587)
160:   3221.97   0.000233    1.18  0.000023  (-0.002136  0.002559  0.003384)
161:   3222.21   0.000228    1.15  0.000022  ( 0.002183  0.000645  0.004112)
162:   3223.29   0.000048    0.25  0.000005  ( 0.001884 -0.000857  0.000641)
163:   3223.34   0.000041    0.21  0.000004  ( 0.001298  0.001508  0.000132)
164:   3223.55   0.000040    0.20  0.000004  ( 0.000183 -0.001932  0.000312)
165:   3232.53   0.000037    0.19  0.000004  ( 0.000634  0.001104 -0.001413)
166:   3232.59   0.000060    0.30  0.000006  (-0.001274  0.000953  0.001804)
167:   3232.74   0.000073    0.37  0.000007  ( 0.000776  0.000335  0.002521)
168:   3235.06   0.000000    0.00  0.000000  (-0.000096 -0.000016  0.000051)
169:   3235.12   0.000000    0.00  0.000000  ( 0.000028 -0.000043  0.000106)
170:   3235.18   0.000000    0.00  0.000000  ( 0.000015  0.000125 -0.000015)
171:   3238.71   0.000315    1.59  0.000030  ( 0.002045  0.003013 -0.004129)
172:   3238.84   0.000346    1.75  0.000033  (-0.002828  0.003062  0.003998)
173:   3239.05   0.000346    1.75  0.000033  ( 0.002745  0.000799  0.005020)
174:   3247.63   0.000024    0.12  0.000002  (-0.001135  0.000970 -0.000257)
175:   3247.66   0.000043    0.22  0.000004  ( 0.001844  0.000785  0.000285)
176:   3247.93   0.000034    0.17  0.000003  ( 0.000182 -0.001763  0.000339)
177:   3252.25   0.000188    0.95  0.000018  ( 0.001165 -0.003431 -0.002217)
178:   3252.65   0.000130    0.65  0.000012  ( 0.001082  0.003080 -0.001330)
179:   3253.00   0.000440    2.22  0.000042  (-0.002415  0.001189 -0.005914)
180:   3253.48   0.000128    0.65  0.000012  ( 0.003222  0.001269  0.000570)
181:   3253.72   0.000679    3.43  0.000065  ( 0.003460 -0.000364 -0.007285)
182:   3254.07   0.000197    1.00  0.000019  (-0.000204 -0.001970 -0.003874)

* The epsilon (eps) is given for a Dirac delta lineshape.
** The dipole moment derivative (T) already includes vibrational overlap.

The first frequency considered to be a vibration is 6
The total number of vibrations considered is 177


--------------------------
THERMOCHEMISTRY AT 298.15K
--------------------------

Temperature         ... 298.15 K
Pressure            ... 1.00 atm
Total Mass          ... 524.41 AMU

Throughout the following assumptions are being made:
  (1) The electronic state is orbitally nondegenerate
  (2) There are no thermally accessible electronically excited states
  (3) Hindered rotations indicated by low frequency modes are not
      treated as such but are treated as vibrations and this may
      cause some error
  (4) All equations used are the standard statistical mechanics
      equations for an ideal gas
  (5) All vibrations are strictly harmonic

freq.      36.11  E(vib)   ...       0.54 
freq.      36.61  E(vib)   ...       0.54 
freq.      36.99  E(vib)   ...       0.54 
freq.      38.52  E(vib)   ...       0.54 
freq.      38.89  E(vib)   ...       0.54 
freq.      60.05  E(vib)   ...       0.51 
freq.      84.75  E(vib)   ...       0.48 
freq.      84.95  E(vib)   ...       0.48 
freq.      94.40  E(vib)   ...       0.47 
freq.     116.76  E(vib)   ...       0.44 
freq.     116.95  E(vib)   ...       0.44 
freq.     127.36  E(vib)   ...       0.43 
freq.     148.20  E(vib)   ...       0.41 
freq.     169.88  E(vib)   ...       0.38 
freq.     170.39  E(vib)   ...       0.38 
freq.     183.67  E(vib)   ...       0.37 
freq.     204.67  E(vib)   ...       0.35 
freq.     205.00  E(vib)   ...       0.35 
freq.     232.58  E(vib)   ...       0.32 
freq.     232.97  E(vib)   ...       0.32 
freq.     256.14  E(vib)   ...       0.30 
freq.     274.74  E(vib)   ...       0.28 
freq.     274.83  E(vib)   ...       0.28 
freq.     283.41  E(vib)   ...       0.28 
freq.     360.68  E(vib)   ...       0.22 
freq.     367.73  E(vib)   ...       0.21 
freq.     367.78  E(vib)   ...       0.21 
freq.     371.20  E(vib)   ...       0.21 
freq.     377.46  E(vib)   ...       0.21 
freq.     377.93  E(vib)   ...       0.21 
freq.     433.63  E(vib)   ...       0.17 
freq.     433.95  E(vib)   ...       0.17 
freq.     441.13  E(vib)   ...       0.17 
freq.     443.91  E(vib)   ...       0.17 
freq.     444.09  E(vib)   ...       0.17 
freq.     462.54  E(vib)   ...       0.16 
freq.     463.81  E(vib)   ...       0.16 
freq.     478.23  E(vib)   ...       0.15 
freq.     478.57  E(vib)   ...       0.15 
freq.     498.30  E(vib)   ...       0.14 
freq.     498.46  E(vib)   ...       0.14 
freq.     501.53  E(vib)   ...       0.14 
freq.     557.83  E(vib)   ...       0.12 
freq.     557.96  E(vib)   ...       0.12 
freq.     561.80  E(vib)   ...       0.11 
freq.     646.00  E(vib)   ...       0.09 
freq.     647.67  E(vib)   ...       0.09 
freq.     647.73  E(vib)   ...       0.09 
freq.     663.65  E(vib)   ...       0.08 
freq.     663.67  E(vib)   ...       0.08 
freq.     664.90  E(vib)   ...       0.08 
freq.     668.34  E(vib)   ...       0.08 
freq.     668.43  E(vib)   ...       0.08 
freq.     672.05  E(vib)   ...       0.08 
freq.     743.05  E(vib)   ...       0.06 
freq.     746.23  E(vib)   ...       0.06 
freq.     746.28  E(vib)   ...       0.06 
freq.     754.50  E(vib)   ...       0.06 
freq.     754.60  E(vib)   ...       0.06 
freq.     757.90  E(vib)   ...       0.06 
freq.     782.61  E(vib)   ...       0.05 
freq.     782.64  E(vib)   ...       0.05 
freq.     782.66  E(vib)   ...       0.05 
freq.     784.25  E(vib)   ...       0.05 
freq.     784.75  E(vib)   ...       0.05 
freq.     784.93  E(vib)   ...       0.05 
freq.     810.56  E(vib)   ...       0.05 
freq.     810.73  E(vib)   ...       0.05 
freq.     811.83  E(vib)   ...       0.05 
freq.     902.64  E(vib)   ...       0.03 
freq.     902.86  E(vib)   ...       0.03 
freq.     904.91  E(vib)   ...       0.03 
freq.     911.49  E(vib)   ...       0.03 
freq.     911.72  E(vib)   ...       0.03 
freq.     915.23  E(vib)   ...       0.03 
freq.     980.84  E(vib)   ...       0.02 
freq.     980.96  E(vib)   ...       0.02 
freq.     981.90  E(vib)   ...       0.02 
freq.     982.00  E(vib)   ...       0.02 
freq.     983.71  E(vib)   ...       0.02 
freq.     984.79  E(vib)   ...       0.02 
freq.    1024.50  E(vib)   ...       0.02 
freq.    1024.57  E(vib)   ...       0.02 
freq.    1024.78  E(vib)   ...       0.02 
freq.    1028.53  E(vib)   ...       0.02 
freq.    1028.58  E(vib)   ...       0.02 
freq.    1028.72  E(vib)   ...       0.02 
freq.    1031.19  E(vib)   ...       0.02 
freq.    1032.64  E(vib)   ...       0.02 
freq.    1032.67  E(vib)   ...       0.02 
freq.    1037.42  E(vib)   ...       0.02 
freq.    1037.51  E(vib)   ...       0.02 
freq.    1049.17  E(vib)   ...       0.02 
freq.    1059.49  E(vib)   ...       0.02 
freq.    1063.27  E(vib)   ...       0.02 
freq.    1063.30  E(vib)   ...       0.02 
freq.    1093.83  E(vib)   ...       0.02 
freq.    1094.06  E(vib)   ...       0.02 
freq.    1094.13  E(vib)   ...       0.02 
freq.    1099.44  E(vib)   ...       0.02 
freq.    1099.46  E(vib)   ...       0.02 
freq.    1100.83  E(vib)   ...       0.02 
freq.    1139.14  E(vib)   ...       0.01 
freq.    1139.20  E(vib)   ...       0.01 
freq.    1139.76  E(vib)   ...       0.01 
freq.    1154.40  E(vib)   ...       0.01 
freq.    1154.42  E(vib)   ...       0.01 
freq.    1155.43  E(vib)   ...       0.01 
freq.    1197.91  E(vib)   ...       0.01 
freq.    1198.02  E(vib)   ...       0.01 
freq.    1198.36  E(vib)   ...       0.01 
freq.    1209.38  E(vib)   ...       0.01 
freq.    1209.51  E(vib)   ...       0.01 
freq.    1210.07  E(vib)   ...       0.01 
freq.    1300.85  E(vib)   ...       0.01 
freq.    1300.92  E(vib)   ...       0.01 
freq.    1302.37  E(vib)   ...       0.01 
freq.    1303.54  E(vib)   ...       0.01 
freq.    1303.60  E(vib)   ...       0.01 
freq.    1309.13  E(vib)   ...       0.01 
freq.    1323.63  E(vib)   ...       0.01 
freq.    1324.06  E(vib)   ...       0.01 
freq.    1324.14  E(vib)   ...       0.01 
freq.    1349.45  E(vib)   ...       0.01 
freq.    1349.53  E(vib)   ...       0.01 
freq.    1349.68  E(vib)   ...       0.01 
freq.    1350.57  E(vib)   ...       0.01 
freq.    1350.60  E(vib)   ...       0.01 
freq.    1351.62  E(vib)   ...       0.01 
freq.    1472.61  E(vib)   ...       0.00 
freq.    1474.72  E(vib)   ...       0.00 
freq.    1474.75  E(vib)   ...       0.00 
freq.    1487.61  E(vib)   ...       0.00 
freq.    1487.62  E(vib)   ...       0.00 
freq.    1487.94  E(vib)   ...       0.00 
freq.    1511.72  E(vib)   ...       0.00 
freq.    1517.21  E(vib)   ...       0.00 
freq.    1517.24  E(vib)   ...       0.00 
freq.    1531.57  E(vib)   ...       0.00 
freq.    1532.01  E(vib)   ...       0.00 
freq.    1532.05  E(vib)   ...       0.00 
freq.    1615.07  E(vib)   ...       0.00 
freq.    1615.19  E(vib)   ...       0.00 
freq.    1615.30  E(vib)   ...       0.00 
freq.    1623.38  E(vib)   ...       0.00 
freq.    1623.49  E(vib)   ...       0.00 
freq.    1624.51  E(vib)   ...       0.00 
freq.    1651.53  E(vib)   ...       0.00 
freq.    1651.58  E(vib)   ...       0.00 
freq.    1651.89  E(vib)   ...       0.00 
freq.    1656.18  E(vib)   ...       0.00 
freq.    1658.73  E(vib)   ...       0.00 
freq.    1658.77  E(vib)   ...       0.00 
freq.    3221.86  E(vib)   ...       0.00 
freq.    3221.97  E(vib)   ...       0.00 
freq.    3222.21  E(vib)   ...       0.00 
freq.    3223.29  E(vib)   ...       0.00 
freq.    3223.34  E(vib)   ...       0.00 
freq.    3223.55  E(vib)   ...       0.00 
freq.    3232.53  E(vib)   ...       0.00 
freq.    3232.59  E(vib)   ...       0.00 
freq.    3232.74  E(vib)   ...       0.00 
freq.    3235.06  E(vib)   ...       0.00 
freq.    3235.12  E(vib)   ...       0.00 
freq.    3235.18  E(vib)   ...       0.00 
freq.    3238.71  E(vib)   ...       0.00 
freq.    3238.84  E(vib)   ...       0.00 
freq.    3239.05  E(vib)   ...       0.00 
freq.    3247.63  E(vib)   ...       0.00 
freq.    3247.66  E(vib)   ...       0.00 
freq.    3247.93  E(vib)   ...       0.00 
freq.    3252.25  E(vib)   ...       0.00 
freq.    3252.65  E(vib)   ...       0.00 
freq.    3253.00  E(vib)   ...       0.00 
freq.    3253.48  E(vib)   ...       0.00 
freq.    3253.72  E(vib)   ...       0.00 
freq.    3254.07  E(vib)   ...       0.00 

------------
INNER ENERGY
------------

The inner energy is: U= E(el) + E(ZPE) + E(vib) + E(rot) + E(trans)
    E(el)   - is the total energy from the electronic structure calculation
              = E(kin-el) + E(nuc-el) + E(el-el) + E(nuc-nuc)
    E(ZPE)  - the the zero temperature vibrational energy from the frequency calculation
    E(vib)  - the the finite temperature correction to E(ZPE) due to population
              of excited vibrational states
    E(rot)  - is the rotational thermal energy
    E(trans)- is the translational thermal energy

Summary of contributions to the inner energy U:
Electronic energy                ...  -2748.43691328 Eh
Zero point energy                ...      0.48627220 Eh     305.14 kcal/mol
Thermal vibrational correction   ...      0.02560676 Eh      16.07 kcal/mol
Thermal rotational correction    ...      0.00141627 Eh       0.89 kcal/mol
Thermal translational correction ...      0.00141627 Eh       0.89 kcal/mol
-----------------------------------------------------------------------
Total thermal energy                  -2747.92220178 Eh


Summary of corrections to the electronic energy:
(perhaps to be used in another calculation)
Total thermal correction                  0.02843930 Eh      17.85 kcal/mol
Non-thermal (ZPE) correction              0.48627220 Eh     305.14 kcal/mol
-----------------------------------------------------------------------
Total correction                          0.51471150 Eh     322.99 kcal/mol


--------
ENTHALPY
--------

The enthalpy is H = U + kB*T
                kB is Boltzmann's constant
Total free energy                 ...  -2747.92220178 Eh 
Thermal Enthalpy correction       ...      0.00094421 Eh       0.59 kcal/mol
-----------------------------------------------------------------------
Total Enthalpy                    ...  -2747.92125757 Eh


Note: Only C1 symmetry has been detected, increase convergence thresholds 
      if your molecule has a higher symmetry. Symmetry factor of 1.0 is   
      used for the rotational entropy correction. 
 

Note: Rotational entropy computed according to Herzberg 
Infrared and Raman Spectra, Chapter V,1, Van Nostrand Reinhold, 1945 
Point Group:  C1, Symmetry Number:   1  
Rotational constants in cm-1:     0.004201     0.004190     0.003514 

Vibrational entropy computed according to the QRRHO of S. Grimme
Chem.Eur.J. 2012 18 9955


-------
ENTROPY
-------

The entropy contributions are T*S = T*(S(el)+S(vib)+S(rot)+S(trans))
     S(el)   - electronic entropy
     S(vib)  - vibrational entropy
     S(rot)  - rotational entropy
     S(trans)- translational entropy
The entropies will be listed as multiplied by the temperature to get
units of energy

Electronic entropy                ...      0.00000000 Eh      0.00 kcal/mol
Vibrational entropy               ...      0.04438439 Eh     27.85 kcal/mol
Rotational entropy                ...      0.01734677 Eh     10.89 kcal/mol
Translational entropy             ...      0.02121816 Eh     13.31 kcal/mol
-----------------------------------------------------------------------
Final entropy term                ...      0.08294932 Eh     52.05 kcal/mol

In case the symmetry of your molecule has not been determined correctly
or in case you have a reason to use a different symmetry number we print 
out the resulting rotational entropy values for sn=1,12 :
 --------------------------------------------------------
|  sn= 1 | S(rot)=       0.01734677 Eh     10.89 kcal/mol|
|  sn= 2 | S(rot)=       0.01669231 Eh     10.47 kcal/mol|
|  sn= 3 | S(rot)=       0.01630948 Eh     10.23 kcal/mol|
|  sn= 4 | S(rot)=       0.01603786 Eh     10.06 kcal/mol|
|  sn= 5 | S(rot)=       0.01582717 Eh      9.93 kcal/mol|
|  sn= 6 | S(rot)=       0.01565503 Eh      9.82 kcal/mol|
|  sn= 7 | S(rot)=       0.01550948 Eh      9.73 kcal/mol|
|  sn= 8 | S(rot)=       0.01538340 Eh      9.65 kcal/mol|
|  sn= 9 | S(rot)=       0.01527219 Eh      9.58 kcal/mol|
|  sn=10 | S(rot)=       0.01517271 Eh      9.52 kcal/mol|
|  sn=11 | S(rot)=       0.01508272 Eh      9.46 kcal/mol|
|  sn=12 | S(rot)=       0.01500057 Eh      9.41 kcal/mol|
 --------------------------------------------------------


-------------------
GIBBS FREE ENERGY
-------------------

The Gibbs free energy is G = H - T*S

Total enthalpy                    ...  -2747.92125757 Eh 
Total entropy correction          ...     -0.08294932 Eh    -52.05 kcal/mol
-----------------------------------------------------------------------
Final Gibbs free energy         ...  -2748.00420689 Eh

For completeness - the Gibbs free energy minus the electronic energy
G-E(el)                           ...      0.43270639 Eh    271.53 kcal/mol


Timings for individual modules:

Sum of individual times         ...     1070.323 sec (=  17.839 min)
GTO integral calculation        ...        4.973 sec (=   0.083 min)   0.5 %
SCF iterations                  ...      137.322 sec (=   2.289 min)  12.8 %
Analytical frequency calculation...      928.027 sec (=  15.467 min)  86.7 %
                             ****ORCA TERMINATED NORMALLY****
TOTAL RUN TIME: 0 days 0 hours 18 minutes 0 seconds 912 msec
