
                                 *****************
                                 * O   R   C   A *
                                 *****************

                                            #,                                       
                                            ###                                      
                                            ####                                     
                                            #####                                    
                                            ######                                   
                                           ########,                                 
                                     ,,################,,,,,                         
                               ,,#################################,,                 
                          ,,##########################################,,             
                       ,#########################################, ''#####,          
                    ,#############################################,,   '####,        
                  ,##################################################,,,,####,       
                ,###########''''           ''''###############################       
              ,#####''   ,,,,##########,,,,          '''####'''          '####       
            ,##' ,,,,###########################,,,                        '##       
           ' ,,###''''                  '''############,,,                           
         ,,##''                                '''############,,,,        ,,,,,,###''
      ,#''                                            '''#######################'''  
     '                                                          ''''####''''         
             ,#######,   #######,   ,#######,      ##                                
            ,#'     '#,  ##    ##  ,#'     '#,    #''#        ######   ,####,        
            ##       ##  ##   ,#'  ##            #'  '#       #        #'  '#        
            ##       ##  #######   ##           ,######,      #####,   #    #        
            '#,     ,#'  ##    ##  '#,     ,#' ,#      #,         ##   #,  ,#        
             '#######'   ##     ##  '#######'  #'      '#     #####' # '####'        



                  #######################################################
                  #                        -***-                        #
                  #          Department of theory and spectroscopy      #
                  #    Directorship and core code : Frank Neese         #
                  #        Max Planck Institute fuer Kohlenforschung    #
                  #                Kaiser Wilhelm Platz 1               #
                  #                 D-45470 Muelheim/Ruhr               #
                  #                      Germany                        #
                  #                                                     #
                  #                  All rights reserved                #
                  #                        -***-                        #
                  #######################################################


                         Program Version 5.0.2 -  RELEASE  -


 With contributions from (in alphabetic order):
   Daniel Aravena         : Magnetic Suceptibility
   Michael Atanasov       : Ab Initio Ligand Field Theory (pilot matlab implementation)
   Alexander A. Auer      : GIAO ZORA, VPT2 properties, NMR spectrum
   Ute Becker             : Parallelization
   Giovanni Bistoni       : ED, misc. LED, open-shell LED, HFLD
   Martin Brehm           : Molecular dynamics
   Dmytro Bykov           : SCF Hessian
   Vijay G. Chilkuri      : MRCI spin determinant printing, contributions to CSF-ICE
   Dipayan Datta          : RHF DLPNO-CCSD density
   Achintya Kumar Dutta   : EOM-CC, STEOM-CC
   Dmitry Ganyushin       : Spin-Orbit,Spin-Spin,Magnetic field MRCI
   Miquel Garcia          : C-PCM and meta-GGA Hessian, CC/C-PCM, Gaussian charge scheme
   Yang Guo               : DLPNO-NEVPT2, F12-NEVPT2, CIM, IAO-localization
   Andreas Hansen         : Spin unrestricted coupled pair/coupled cluster methods
   Benjamin Helmich-Paris : MC-RPA, TRAH-SCF, COSX integrals
   Lee Huntington         : MR-EOM, pCC
   Robert Izsak           : Overlap fitted RIJCOSX, COSX-SCS-MP3, EOM
   Marcus Kettner         : VPT2
   Christian Kollmar      : KDIIS, OOCD, Brueckner-CCSD(T), CCSD density, CASPT2, CASPT2-K
   Simone Kossmann        : Meta GGA functionals, TD-DFT gradient, OOMP2, MP2 Hessian
   Martin Krupicka        : Initial AUTO-CI
   Lucas Lang             : DCDCAS
   Marvin Lechner         : AUTO-CI (C++ implementation), FIC-MRCC
   Dagmar Lenk            : GEPOL surface, SMD
   Dimitrios Liakos       : Extrapolation schemes; Compound Job, initial MDCI parallelization
   Dimitrios Manganas     : Further ROCIS development; embedding schemes
   Dimitrios Pantazis     : SARC Basis sets
   Anastasios Papadopoulos: AUTO-CI, single reference methods and gradients
   Taras Petrenko         : DFT Hessian,TD-DFT gradient, ASA, ECA, R-Raman, ABS, FL, XAS/XES, NRVS
   Peter Pinski           : DLPNO-MP2, DLPNO-MP2 Gradient
   Christoph Reimann      : Effective Core Potentials
   Marius Retegan         : Local ZFS, SOC
   Christoph Riplinger    : Optimizer, TS searches, QM/MM, DLPNO-CCSD(T), (RO)-DLPNO pert. Triples
   Tobias Risthaus        : Range-separated hybrids, TD-DFT gradient, RPA, STAB
   Michael Roemelt        : Original ROCIS implementation
   Masaaki Saitow         : Open-shell DLPNO-CCSD energy and density
   Barbara Sandhoefer     : DKH picture change effects
   Avijit Sen             : IP-ROCIS
   Kantharuban Sivalingam : CASSCF convergence, NEVPT2, FIC-MRCI
   Bernardo de Souza      : ESD, SOC TD-DFT
   Georgi Stoychev        : AutoAux, RI-MP2 NMR, DLPNO-MP2 response
   Willem Van den Heuvel  : Paramagnetic NMR
   Boris Wezisla          : Elementary symmetry handling
   Frank Wennmohs         : Technical directorship


 We gratefully acknowledge several colleagues who have allowed us to
 interface, adapt or use parts of their codes:
   Stefan Grimme, W. Hujo, H. Kruse, P. Pracht,  : VdW corrections, initial TS optimization,
                  C. Bannwarth, S. Ehlert          DFT functionals, gCP, sTDA/sTD-DF
   Ed Valeev, F. Pavosevic, A. Kumar             : LibInt (2-el integral package), F12 methods
   Garnet Chan, S. Sharma, J. Yang, R. Olivares  : DMRG
   Ulf Ekstrom                                   : XCFun DFT Library
   Mihaly Kallay                                 : mrcc  (arbitrary order and MRCC methods)
   Jiri Pittner, Ondrej Demel                    : Mk-CCSD
   Frank Weinhold                                : gennbo (NPA and NBO analysis)
   Christopher J. Cramer and Donald G. Truhlar   : smd solvation model
   Lars Goerigk                                  : TD-DFT with DH, B97 family of functionals
   V. Asgeirsson, H. Jonsson                     : NEB implementation
   FAccTs GmbH                                   : IRC, NEB, NEB-TS, DLPNO-Multilevel, CI-OPT
                                                   MM, QMMM, 2- and 3-layer-ONIOM, Crystal-QMMM,
                                                   LR-CPCM, SF, NACMEs, symmetry and pop. for TD-DFT,
                                                   nearIR, NL-DFT gradient (VV10), updates on ESD,
                                                   ML-optimized integration grids
   S Lehtola, MJT Oliveira, MAL Marques          : LibXC Library
   Liviu Ungur et al                             : ANISO software


 Your calculation uses the libint2 library for the computation of 2-el integrals
 For citations please refer to: http://libint.valeyev.net

 Your ORCA version has been built with support for libXC version: 5.1.0
 For citations please refer to: https://tddft.org/programs/libxc/

 This ORCA versions uses:
   CBLAS   interface :  Fast vector & matrix operations
   LAPACKE interface :  Fast linear algebra routines
   SCALAPACK package :  Parallel linear algebra routines
   Shared memory     :  Shared parallel matrices
   BLAS/LAPACK       :  OpenBLAS 0.3.15  USE64BITINT DYNAMIC_ARCH NO_AFFINITY Prescott SINGLE_THREADED
        Core in use  :  Prescott
   Copyright (c) 2011-2014, The OpenBLAS Project


================================================================================

----- Orbital basis set information -----
Your calculation utilizes the basis: 6-31G*
   H-He, Li-Ne : W. J. Hehre, R. Ditchfield and J.A. Pople, J. Chem. Phys. 56, 2257 (1972).
                 Note: He and Ne are unpublished basis sets taken from the Gaussian program.
                 Note: Li and B from J. D. Dill and J. A. Pople, J. Chem. Phys. 62, 2921 (1975).
   Na - Ar     : M. M. Francl, W. J. Pietro, W. J. Hehre, J. S. Binkley, M. S. Gordon, 
                 D. J. DeFrees and J. A. Pople, J. Chem. Phys. 77, 3654 (1982).
   K - Zn      : V. A. Rassolov, J. A. Pople, M. A. Ratner, and T. L. Windus, J. Chem. Phys. 109, 1223 (1998).

----- AuxJ basis set information -----
Your calculation utilizes the auxiliary basis: def2/J
   F. Weigend, Phys. Chem. Chem. Phys. 8, 1057 (2006).

================================================================================
                                        WARNINGS
                       Please study these warnings very carefully!
================================================================================


WARNING: Geometry Optimization
  ===> : Switching off AutoStart
         For restart on a previous wavefunction, please use MOREAD

INFO   : the flag for use of the SHARK integral package has been found!

================================================================================
                                       INPUT FILE
================================================================================
NAME = Fe_plus2_small_opt.orca
|  1> ! B3LYP 6-31G* OPT
|  2> 
|  3> %pal
|  4> nprocs 32
|  5> end
|  6> 
|  7> * xyz 2 1
|  8> Fe  -0.01100000  0.01500000  -0.01000000
|  9> N  0.50400000  1.64900000  0.97000000
| 10> C  1.16100000  1.69700000  2.15400000
| 11> C  1.54700000  2.89900000  2.74100000
| 12> C  1.25200000  4.10100000  2.08700000
| 13> C  0.57300000  4.05800000  0.86800000
| 14> C  0.20600000  2.82300000  0.32500000
| 15> C  -0.52300000  2.64600000  -0.93300000
| 16> C  -1.00600000  3.68800000  -1.73000000
| 17> C  -1.69900000  3.39200000  -2.90600000
| 18> C  -1.89700000  2.05300000  -3.25800000
| 19> C  -1.39500000  1.05400000  -2.42600000
| 20> N  -0.71700000  1.33400000  -1.28700000
| 21> H  -1.51900000  0.00800000  -2.66200000
| 22> H  -2.43000000  1.78400000  -4.16000000
| 23> H  -2.07900000  4.19000000  -3.53200000
| 24> H  -0.85000000  4.71800000  -1.43800000
| 25> H  0.33600000  4.97700000  0.34700000
| 26> H  1.54400000  5.05100000  2.51700000
| 27> H  2.06900000  2.89200000  3.69000000
| 28> H  1.36400000  0.74700000  2.62500000
| 29> N  -1.80400000  -0.10800000  0.81300000
| 30> C  -2.32500000  0.75700000  1.71700000
| 31> C  -3.62400000  0.63100000  2.20500000
| 32> C  -4.42400000  -0.42000000  1.74500000
| 33> C  -3.89600000  -1.31100000  0.80900000
| 34> C  -2.58600000  -1.13600000  0.35300000
| 35> C  -1.92500000  -1.99600000  -0.63200000
| 36> C  -2.48800000  -3.15000000  -1.18600000
| 37> C  -1.76100000  -3.88900000  -2.12100000
| 38> C  -0.48100000  -3.45500000  -2.48200000
| 39> C  0.03200000  -2.29900000  -1.89600000
| 40> N  -0.67000000  -1.57600000  -0.99000000
| 41> H  1.01500000  -1.93300000  -2.15200000
| 42> H  0.11200000  -4.00100000  -3.20500000
| 43> H  -2.18400000  -4.78500000  -2.55800000
| 44> H  -3.47700000  -3.47200000  -0.89000000
| 45> H  -4.50300000  -2.12600000  0.43600000
| 46> H  -5.43800000  -0.54200000  2.10500000
| 47> H  -3.99800000  1.34400000  2.92900000
| 48> H  -1.67800000  1.55200000  2.05500000
| 49> N  0.83800000  -1.22900000  1.28000000
| 50> C  0.22500000  -1.84300000  2.32100000
| 51> C  0.88300000  -2.76300000  3.13500000
| 52> C  2.22200000  -3.07000000  2.86800000
| 53> C  2.85800000  -2.44300000  1.79500000
| 54> C  2.15000000  -1.52500000  1.01400000
| 55> C  2.70700000  -0.80500000  -0.13400000
| 56> C  4.04200000  -0.87600000  -0.54400000
| 57> C  4.46000000  -0.14800000  -1.65900000
| 58> C  3.52700000  0.64100000  -2.34100000
| 59> C  2.21100000  0.67700000  -1.88700000
| 60> N  1.79600000  -0.03100000  -0.80700000
| 61> H  1.46500000  1.27500000  -2.38900000
| 62> H  3.81300000  1.22000000  -3.21000000
| 63> H  5.49200000  -0.19200000  -1.98700000
| 64> H  4.75100000  -1.48500000  0.00100000
| 65> H  3.89100000  -2.67300000  1.57000000
| 66> H  2.75800000  -3.78300000  3.48100000
| 67> H  0.35600000  -3.22800000  3.95800000
| 68> H  -0.80800000  -1.58100000  2.49900000
| 69> **                         ****END OF INPUT****
================================================================================

                       *****************************
                       * Geometry Optimization Run *
                       *****************************

Geometry optimization settings:
Update method            Update   .... BFGS
Choice of coordinates    CoordSys .... Z-matrix Internals
Initial Hessian          InHess   .... Almoef's Model

Convergence Tolerances:
Energy Change            TolE     ....  5.0000e-06 Eh
Max. Gradient            TolMAXG  ....  3.0000e-04 Eh/bohr
RMS Gradient             TolRMSG  ....  1.0000e-04 Eh/bohr
Max. Displacement        TolMAXD  ....  4.0000e-03 bohr
RMS Displacement         TolRMSD  ....  2.0000e-03 bohr
Strict Convergence                ....  False
------------------------------------------------------------------------------
                        ORCA OPTIMIZATION COORDINATE SETUP
------------------------------------------------------------------------------

The optimization will be done in new redundant internal coordinates
Making redundant internal coordinates   ...  (new redundants) done
Evaluating the initial hessian          ...  (Almloef) done
Evaluating the coordinates              ...  done
Calculating the B-matrix                .... done
Calculating the G-matrix                .... done
Diagonalizing the G-matrix              .... done
Small eigenvalue found = 1.068e-02
Small eigenvalue found = 1.090e-02
Small eigenvalue found = 1.471e-02
Small eigenvalue found = 1.819e-02
Small eigenvalue found = 1.822e-02
Small eigenvalue found = 1.984e-02
Small eigenvalue found = 2.741e-02
The first mode is                       ....  228
The number of degrees of freedom        ....  177

    -----------------------------------------------------------------
                    Redundant Internal Coordinates


    -----------------------------------------------------------------
         Definition                    Initial Value    Approx d2E/dq
    -----------------------------------------------------------------
      1. B(N   1,Fe  0)                  1.9737         0.663297   
      2. B(C   2,N   1)                  1.3549         0.636565   
      3. B(C   3,C   2)                  1.3923         0.619646   
      4. B(C   4,C   3)                  1.3998         0.602620   
      5. B(C   5,C   4)                  1.3960         0.611147   
      6. B(C   6,N   1)                  1.3723         0.597275   
      7. B(C   6,C   5)                  1.3981         0.606415   
      8. B(C   7,C   6)                  1.4647         0.474861   
      9. B(C   8,C   7)                  1.3979         0.606815   
     10. B(C   9,C   8)                  1.3967         0.609550   
     11. B(C  10,C   9)                  1.3986         0.605408   
     12. B(C  11,C  10)                  1.3936         0.616500   
     13. B(N  12,C  11)                  1.3548         0.636914   
     14. B(N  12,C   7)                  1.3727         0.596323   
     15. B(N  12,Fe  0)                  1.9670         0.679986   
     16. B(H  13,C  11)                  1.0794         0.374346   
     17. B(H  14,C  10)                  1.0817         0.371262   
     18. B(H  15,C   9)                  1.0831         0.369361   
     19. B(H  16,C   8)                  1.0819         0.370981   
     20. B(H  17,C   5)                  1.0827         0.369930   
     21. B(H  18,C   4)                  1.0829         0.369621   
     22. B(H  19,C   3)                  1.0831         0.369327   
     23. B(H  20,C   2)                  1.0796         0.374115   
     24. B(N  21,Fe  0)                  1.9767         0.656103   
     25. B(C  22,N  21)                  1.3553         0.635640   
     26. B(C  23,C  22)                  1.3933         0.617157   
     27. B(C  24,C  23)                  1.3986         0.605271   
     28. B(C  25,C  24)                  1.3960         0.611220   
     29. B(C  26,C  25)                  1.3981         0.606497   
     30. B(C  26,N  21)                  1.3711         0.599837   
     31. B(C  27,C  26)                  1.4652         0.474021   
     32. B(C  28,C  27)                  1.3984         0.605748   
     33. B(C  29,C  28)                  1.3960         0.611128   
     34. B(C  30,C  29)                  1.3990         0.604575   
     35. B(C  31,C  30)                  1.3939         0.615954   
     36. B(N  32,C  31)                  1.3551         0.636082   
     37. B(N  32,C  27)                  1.3710         0.600094   
     38. B(N  32,Fe  0)                  1.9814         0.644841   
     39. B(H  33,C  31)                  1.0797         0.373968   
     40. B(H  34,C  30)                  1.0828         0.369728   
     41. B(H  35,C  29)                  1.0829         0.369590   
     42. B(H  36,C  28)                  1.0814         0.371661   
     43. B(H  37,C  25)                  1.0825         0.370162   
     44. B(H  38,C  24)                  1.0829         0.369611   
     45. B(H  39,C  23)                  1.0828         0.369774   
     46. B(H  40,C  22)                  1.0793         0.374543   
     47. B(N  41,Fe  0)                  1.9830         0.640984   
     48. B(C  42,N  41)                  1.3552         0.636016   
     49. B(C  43,C  42)                  1.3935         0.616719   
     50. B(C  44,C  43)                  1.3994         0.603479   
     51. B(C  45,C  44)                  1.3960         0.611065   
     52. B(C  46,C  45)                  1.3978         0.607064   
     53. B(C  46,N  41)                  1.3710         0.599992   
     54. B(C  47,C  46)                  1.4651         0.474135   
     55. B(C  48,C  47)                  1.3983         0.605935   
     56. B(C  49,C  48)                  1.3957         0.611886   
     57. B(C  50,C  49)                  1.3993         0.603737   
     58. B(C  51,C  50)                  1.3926         0.618912   
     59. B(N  52,C  51)                  1.3564         0.633056   
     60. B(N  52,C  47)                  1.3718         0.598218   
     61. B(N  52,Fe  0)                  1.9755         0.658996   
     62. B(H  53,C  51)                  1.0799         0.373750   
     63. B(H  54,C  50)                  1.0827         0.369914   
     64. B(H  55,C  49)                  1.0838         0.368445   
     65. B(H  56,C  48)                  1.0819         0.370926   
     66. B(H  57,C  45)                  1.0819         0.370909   
     67. B(H  58,C  44)                  1.0823         0.370393   
     68. B(H  59,C  43)                  1.0823         0.370488   
     69. B(H  60,C  42)                  1.0805         0.372929   
     70. A(N   1,Fe  0,N  12)           82.0016         0.560678   
     71. A(N  21,Fe  0,N  32)           81.6209         0.553898   
     72. A(N  41,Fe  0,N  52)           81.7336         0.553729   
     73. A(N   1,Fe  0,N  21)           94.6729         0.556877   
     74. A(N  32,Fe  0,N  41)           87.7317         0.551451   
     75. A(N  12,Fe  0,N  21)           89.2241         0.559515   
     76. A(N   1,Fe  0,N  52)           88.9069         0.557343   
     77. A(N  32,Fe  0,N  52)           94.9327         0.554361   
     78. A(N   1,Fe  0,N  41)           94.8551         0.554414   
     79. A(N  12,Fe  0,N  52)           94.7038         0.559984   
     80. A(N  21,Fe  0,N  41)           94.5004         0.553267   
     81. A(N  12,Fe  0,N  32)           95.6222         0.557675   
     82. A(Fe  0,N   1,C   2)          126.1386         0.490380   
     83. A(C   2,N   1,C   6)          119.0601         0.427569   
     84. A(Fe  0,N   1,C   6)          114.7225         0.484634   
     85. A(N   1,C   2,H  20)          116.1829         0.354589   
     86. A(C   3,C   2,H  20)          121.5763         0.355165   
     87. A(N   1,C   2,C   3)          122.2392         0.433231   
     88. A(C   4,C   3,H  19)          121.0952         0.352722   
     89. A(C   2,C   3,C   4)          119.0732         0.431808   
     90. A(C   2,C   3,H  19)          119.8315         0.354390   
     91. A(C   3,C   4,H  18)          120.7272         0.352769   
     92. A(C   3,C   4,C   5)          118.9475         0.430738   
     93. A(C   5,C   4,H  18)          120.3253         0.353610   
     94. A(C   4,C   5,H  17)          120.0348         0.353660   
     95. A(C   4,C   5,C   6)          119.6046         0.431224   
     96. A(C   6,C   5,H  17)          120.3603         0.353195   
     97. A(C   5,C   6,C   7)          124.8172         0.412228   
     98. A(N   1,C   6,C   5)          121.0745         0.426649   
     99. A(N   1,C   6,C   7)          114.1041         0.408468   
    100. A(C   6,C   7,C   8)          124.8587         0.412276   
    101. A(C   8,C   7,N  12)          121.1020         0.426577   
    102. A(C   6,C   7,N  12)          114.0376         0.408353   
    103. A(C   7,C   8,C   9)          119.5701         0.431073   
    104. A(C   7,C   8,H  16)          120.3932         0.353404   
    105. A(C   9,C   8,H  16)          120.0361         0.353673   
    106. A(C   8,C   9,C  10)          119.0157         0.430893   
    107. A(C   8,C   9,H  15)          120.3031         0.353411   
    108. A(C  10,C   9,H  15)          120.6809         0.353003   
    109. A(C   9,C  10,H  14)          121.1797         0.353310   
    110. A(C  11,C  10,H  14)          119.8052         0.354398   
    111. A(C   9,C  10,C  11)          119.0151         0.431771   
    112. A(C  10,C  11,H  13)          121.5149         0.354896   
    113. A(C  10,C  11,N  12)          122.2782         0.432877   
    114. A(N  12,C  11,H  13)          116.2044         0.354659   
    115. A(C   7,N  12,C  11)          119.0177         0.427488   
    116. A(Fe  0,N  12,C  11)          125.9345         0.492694   
    117. A(Fe  0,N  12,C   7)          115.0099         0.486722   
    118. A(C  22,N  21,C  26)          118.8848         0.427785   
    119. A(Fe  0,N  21,C  26)          115.1072         0.484041   
    120. A(Fe  0,N  21,C  22)          125.9220         0.489259   
    121. A(N  21,C  22,C  23)          122.2948         0.432804   
    122. A(C  23,C  22,H  40)          121.0510         0.354992   
    123. A(N  21,C  22,H  40)          116.6510         0.354571   
    124. A(C  22,C  23,C  24)          119.0790         0.431836   
    125. A(C  22,C  23,H  39)          119.7789         0.354221   
    126. A(C  24,C  23,H  39)          121.1420         0.353056   
    127. A(C  23,C  24,C  25)          118.9336         0.431087   
    128. A(C  25,C  24,H  38)          120.3417         0.353615   
    129. A(C  23,C  24,H  38)          120.7245         0.353030   
    130. A(C  24,C  25,C  26)          119.5507         0.431244   
    131. A(C  26,C  25,H  37)          120.4816         0.353240   
    132. A(C  24,C  25,H  37)          119.9660         0.353704   
    133. A(C  25,C  26,C  27)          124.6465         0.412108   
    134. A(N  21,C  26,C  27)          114.0994         0.408650   
    135. A(N  21,C  26,C  25)          121.2540         0.426987   
    136. A(C  26,C  27,N  32)          114.1237         0.408681   
    137. A(C  28,C  27,N  32)          121.1910         0.426925   
    138. A(C  26,C  27,C  28)          124.6852         0.412018   
    139. A(C  27,C  28,C  29)          119.5057         0.431137   
    140. A(C  29,C  28,H  36)          120.1306         0.353938   
    141. A(C  27,C  28,H  36)          120.3630         0.353408   
    142. A(C  28,C  29,C  30)          119.0184         0.430987   
    143. A(C  30,C  29,H  35)          120.6603         0.352958   
    144. A(C  28,C  29,H  35)          120.3213         0.353603   
    145. A(C  29,C  30,C  31)          119.0481         0.431596   
    146. A(C  31,C  30,H  34)          119.8242         0.354097   
    147. A(C  29,C  30,H  34)          121.1277         0.352980   
    148. A(N  32,C  31,H  33)          116.6984         0.354520   
    149. A(C  30,C  31,H  33)          121.0992         0.354782   
    150. A(C  30,C  31,N  32)          122.2013         0.432706   
    151. A(C  27,N  32,C  31)          119.0350         0.427871   
    152. A(Fe  0,N  32,C  31)          125.9293         0.487756   
    153. A(Fe  0,N  32,C  27)          114.9162         0.482534   
    154. A(C  42,N  41,C  46)          118.9529         0.427850   
    155. A(Fe  0,N  41,C  46)          114.7667         0.481985   
    156. A(Fe  0,N  41,C  42)          126.1768         0.487206   
    157. A(C  43,C  42,H  60)          121.0168         0.354689   
    158. A(N  41,C  42,H  60)          116.6896         0.354347   
    159. A(N  41,C  42,C  43)          122.2926         0.432795   
    160. A(C  44,C  43,H  59)          121.1139         0.352995   
    161. A(C  42,C  43,H  59)          119.8628         0.354294   
    162. A(C  42,C  43,C  44)          119.0233         0.431551   
    163. A(C  45,C  44,H  58)          120.3690         0.353727   
    164. A(C  43,C  44,H  58)          120.6834         0.352979   
    165. A(C  43,C  44,C  45)          118.9475         0.430838   
    166. A(C  46,C  45,H  57)          120.4641         0.353417   
    167. A(C  44,C  45,H  57)          119.9551         0.353810   
    168. A(C  44,C  45,C  46)          119.5800         0.431297   
    169. A(C  45,C  46,C  47)          124.6087         0.412194   
    170. A(N  41,C  46,C  47)          114.1880         0.408686   
    171. A(N  41,C  46,C  45)          121.2033         0.427078   
    172. A(C  48,C  47,N  52)          121.2517         0.426709   
    173. A(C  46,C  47,N  52)          114.1549         0.408472   
    174. A(C  46,C  47,C  48)          124.5931         0.412058   
    175. A(C  49,C  48,H  56)          119.9844         0.353893   
    176. A(C  47,C  48,H  56)          120.4314         0.353308   
    177. A(C  47,C  48,C  49)          119.5829         0.431257   
    178. A(C  50,C  49,H  55)          120.6830         0.352690   
    179. A(C  48,C  49,H  55)          120.3843         0.353491   
    180. A(C  48,C  49,C  50)          118.9323         0.430975   
    181. A(C  51,C  50,H  54)          119.8334         0.354414   
    182. A(C  49,C  50,H  54)          121.1038         0.352927   
    183. A(C  49,C  50,C  51)          119.0628         0.431860   
    184. A(N  52,C  51,H  53)          116.6040         0.354199   
    185. A(C  50,C  51,H  53)          121.0373         0.355035   
    186. A(C  50,C  51,N  52)          122.3582         0.432708   
    187. A(C  47,N  52,C  51)          118.8114         0.427266   
    188. A(Fe  0,N  52,C  51)          126.0810         0.489289   
    189. A(Fe  0,N  52,C  47)          115.0020         0.484193   
    190. D(C   6,N   1,Fe  0,N  21)    -91.1317         0.003817   
    191. D(C   2,N   1,Fe  0,N  12)   -179.2963         0.003817   
    192. D(C   6,N   1,Fe  0,N  12)     -2.5760         0.003817   
    193. D(C   2,N   1,Fe  0,N  52)    -84.3912         0.003817   
    194. D(C   2,N   1,Fe  0,N  41)     -2.7829         0.003817   
    195. D(C   6,N   1,Fe  0,N  52)     92.3291         0.003817   
    196. D(C   6,N   1,Fe  0,N  41)    173.9374         0.003817   
    197. D(C   2,N   1,Fe  0,N  21)     92.1480         0.003817   
    198. D(H  20,C   2,N   1,C   6)    179.4839         0.032952   
    199. D(C   3,C   2,N   1,C   6)     -0.0621         0.032952   
    200. D(H  20,C   2,N   1,Fe  0)     -3.9244         0.032952   
    201. D(C   3,C   2,N   1,Fe  0)    176.5296         0.032952   
    202. D(H  19,C   3,C   2,H  20)      0.3571         0.026567   
    203. D(H  19,C   3,C   2,N   1)    179.8788         0.026567   
    204. D(C   4,C   3,C   2,N   1)     -0.2070         0.026567   
    205. D(C   4,C   3,C   2,H  20)   -179.7288         0.026567   
    206. D(H  18,C   4,C   3,H  19)      0.2120         0.025047   
    207. D(H  18,C   4,C   3,C   2)   -179.7010         0.025047   
    208. D(C   5,C   4,C   3,H  19)   -179.7671         0.025047   
    209. D(C   5,C   4,C   3,C   2)      0.3198         0.025047   
    210. D(H  17,C   5,C   4,H  18)      0.0308         0.025801   
    211. D(C   6,C   5,C   4,H  18)    179.8469         0.025801   
    212. D(H  17,C   5,C   4,C   3)   -179.9899         0.025801   
    213. D(C   6,C   5,C   4,C   3)     -0.1739         0.025801   
    214. D(N   1,C   6,C   5,C   4)     -0.0960         0.025381   
    215. D(N   1,C   6,C   5,H  17)    179.7195         0.025381   
    216. D(C   7,C   6,N   1,C   2)   -179.0764         0.028727   
    217. D(C   5,C   6,N   1,Fe  0)   -176.7551         0.028727   
    218. D(C   5,C   6,N   1,C   2)      0.2150         0.028727   
    219. D(C   7,C   6,C   5,C   4)    179.1162         0.025381   
    220. D(C   7,C   6,N   1,Fe  0)      3.9534         0.028727   
    221. D(C   7,C   6,C   5,H  17)     -1.0683         0.025381   
    222. D(N  12,C   7,C   6,C   5)    177.2986         0.015353   
    223. D(C   8,C   7,C   6,C   5)     -3.1748         0.015353   
    224. D(C   8,C   7,C   6,N   1)    176.0860         0.015353   
    225. D(N  12,C   7,C   6,N   1)     -3.4407         0.015353   
    226. D(H  16,C   8,C   7,N  12)    179.7555         0.025416   
    227. D(H  16,C   8,C   7,C   6)      0.2603         0.025416   
    228. D(C   9,C   8,C   7,C   6)   -179.4331         0.025416   
    229. D(C   9,C   8,C   7,N  12)      0.0621         0.025416   
    230. D(H  15,C   9,C   8,H  16)      0.2607         0.025659   
    231. D(H  15,C   9,C   8,C   7)    179.9552         0.025659   
    232. D(C  10,C   9,C   8,H  16)   -179.5335         0.025659   
    233. D(C  10,C   9,C   8,C   7)      0.1610         0.025659   
    234. D(H  14,C  10,C   9,H  15)      0.1117         0.025292   
    235. D(H  14,C  10,C   9,C   8)    179.9051         0.025292   
    236. D(C  11,C  10,C   9,H  15)   -179.8987         0.025292   
    237. D(C  11,C  10,C   9,C   8)     -0.1053         0.025292   
    238. D(N  12,C  11,C  10,H  14)    179.8082         0.026282   
    239. D(H  13,C  11,C  10,H  14)      0.3934         0.026282   
    240. D(N  12,C  11,C  10,C   9)     -0.1815         0.026282   
    241. D(H  13,C  11,C  10,C   9)   -179.5963         0.026282   
    242. D(Fe  0,N  12,C   7,C   8)   -178.2333         0.028629   
    243. D(Fe  0,N  12,C   7,C   6)      1.3131         0.028629   
    244. D(C  11,N  12,Fe  0,N  52)     94.6659         0.003936   
    245. D(C  11,N  12,Fe  0,N  32)     -0.7734         0.003936   
    246. D(C  11,N  12,Fe  0,N  21)    -82.2755         0.003936   
    247. D(C  11,N  12,Fe  0,N   1)   -177.1043         0.003936   
    248. D(C   7,N  12,Fe  0,N  52)    -87.6112         0.003936   
    249. D(C   7,N  12,Fe  0,N  32)    176.9494         0.003936   
    250. D(C   7,N  12,Fe  0,N   1)      0.6186         0.003936   
    251. D(C  11,N  12,C   7,C   6)    179.2047         0.028629   
    252. D(C   7,N  12,Fe  0,N  21)     95.4473         0.003936   
    253. D(C   7,N  12,C  11,H  13)    179.8480         0.032991   
    254. D(C   7,N  12,C  11,C  10)      0.4040         0.032991   
    255. D(Fe  0,N  12,C  11,H  13)     -2.5119         0.032991   
    256. D(Fe  0,N  12,C  11,C  10)    178.0441         0.032991   
    257. D(C  11,N  12,C   7,C   8)     -0.3417         0.028629   
    258. D(C  26,N  21,Fe  0,N  41)    -87.3837         0.003767   
    259. D(C  26,N  21,Fe  0,N  12)     95.4499         0.003767   
    260. D(C  26,N  21,Fe  0,N   1)    177.3598         0.003767   
    261. D(C  22,N  21,Fe  0,N  41)     96.0451         0.003767   
    262. D(C  26,N  21,Fe  0,N  32)     -0.3485         0.003767   
    263. D(C  22,N  21,Fe  0,N  32)   -176.9197         0.003767   
    264. D(C  22,N  21,Fe  0,N  12)    -81.1213         0.003767   
    265. D(C  22,N  21,Fe  0,N   1)      0.7887         0.003767   
    266. D(H  40,C  22,N  21,C  26)    179.9654         0.032848   
    267. D(H  40,C  22,N  21,Fe  0)     -3.5808         0.032848   
    268. D(C  23,C  22,N  21,C  26)      0.6108         0.032848   
    269. D(C  23,C  22,N  21,Fe  0)    177.0647         0.032848   
    270. D(H  39,C  23,C  22,H  40)      0.4987         0.026341   
    271. D(H  39,C  23,C  22,N  21)    179.8254         0.026341   
    272. D(C  24,C  23,C  22,H  40)   -179.5885         0.026341   
    273. D(C  24,C  23,C  22,N  21)     -0.2619         0.026341   
    274. D(H  38,C  24,C  23,H  39)      0.0239         0.025280   
    275. D(H  38,C  24,C  23,C  22)   -179.8876         0.025280   
    276. D(C  25,C  24,C  23,H  39)    179.8603         0.025280   
    277. D(C  25,C  24,C  23,C  22)     -0.0513         0.025280   
    278. D(H  37,C  25,C  24,H  38)      0.3013         0.025808   
    279. D(H  37,C  25,C  24,C  23)   -179.5357         0.025808   
    280. D(C  26,C  25,C  24,H  38)    179.8411         0.025808   
    281. D(C  26,C  25,C  24,C  23)      0.0041         0.025808   
    282. D(C  27,C  26,C  25,H  37)     -0.0022         0.025388   
    283. D(C  27,C  26,C  25,C  24)   -179.5396         0.025388   
    284. D(N  21,C  26,C  25,H  37)    179.8902         0.025388   
    285. D(N  21,C  26,C  25,C  24)      0.3528         0.025388   
    286. D(C  27,C  26,N  21,C  22)    179.2494         0.028991   
    287. D(C  27,C  26,N  21,Fe  0)      2.4204         0.028991   
    288. D(C  25,C  26,N  21,C  22)     -0.6536         0.028991   
    289. D(C  25,C  26,N  21,Fe  0)   -177.4826         0.028991   
    290. D(N  32,C  27,C  26,C  25)    175.8773         0.015299   
    291. D(N  32,C  27,C  26,N  21)     -4.0219         0.015299   
    292. D(C  28,C  27,C  26,C  25)     -4.0000         0.015299   
    293. D(C  28,C  27,C  26,N  21)    176.1009         0.015299   
    294. D(H  36,C  28,C  27,N  32)    179.6718         0.025322   
    295. D(C  29,C  28,C  27,N  32)     -0.0225         0.025322   
    296. D(C  29,C  28,C  27,C  26)    179.8465         0.025322   
    297. D(H  36,C  28,C  27,C  26)     -0.4592         0.025322   
    298. D(H  35,C  29,C  28,H  36)      0.2741         0.025799   
    299. D(H  35,C  29,C  28,C  27)    179.9692         0.025799   
    300. D(C  30,C  29,C  28,H  36)   -179.6744         0.025799   
    301. D(C  30,C  29,C  28,C  27)      0.0207         0.025799   
    302. D(H  34,C  30,C  29,H  35)      0.1613         0.025218   
    303. D(H  34,C  30,C  29,C  28)   -179.8903         0.025218   
    304. D(C  31,C  30,C  29,H  35)   -179.8349         0.025218   
    305. D(C  31,C  30,C  29,C  28)      0.1134         0.025218   
    306. D(H  33,C  31,C  30,H  34)      0.1451         0.026233   
    307. D(H  33,C  31,C  30,C  29)   -179.8586         0.026233   
    308. D(N  32,C  31,C  30,H  34)    179.7452         0.026233   
    309. D(N  32,C  31,C  30,C  29)     -0.2584         0.026233   
    310. D(C  31,N  32,Fe  0,N  21)   -177.9071         0.003689   
    311. D(C  31,N  32,Fe  0,N  12)     93.7119         0.003689   
    312. D(C  27,N  32,Fe  0,N  52)    174.4419         0.003689   
    313. D(C  27,N  32,Fe  0,N  41)     92.9438         0.003689   
    314. D(C  27,N  32,Fe  0,N  21)     -1.9443         0.003689   
    315. D(C  31,N  32,Fe  0,N  41)    -83.0191         0.003689   
    316. D(C  27,N  32,Fe  0,N  12)    -90.3252         0.003689   
    317. D(C  27,N  32,C  31,H  33)    179.8738         0.032898   
    318. D(Fe  0,N  32,C  31,H  33)     -4.3141         0.032898   
    319. D(Fe  0,N  32,C  31,C  30)    176.0691         0.032898   
    320. D(C  31,N  32,C  27,C  28)     -0.1139         0.029018   
    321. D(C  31,N  32,C  27,C  26)   -179.9959         0.029018   
    322. D(Fe  0,N  32,C  27,C  28)   -176.3754         0.029018   
    323. D(Fe  0,N  32,C  27,C  26)      3.7426         0.029018   
    324. D(C  31,N  32,N   1,C   6)     90.7266         0.001500   
    325. D(C  31,N  32,N   1,C   2)    -88.1995         0.001500   
    326. D(C  27,N  32,N   1,C   6)    -91.9641         0.001500   
    327. D(C  27,N  32,C  31,C  30)      0.2570         0.032898   
    328. D(C  27,N  32,N   1,C   2)     89.1098         0.001500   
    329. D(C  31,N  32,Fe  0,N  52)     -1.5209         0.003689   
    330. D(C  46,N  41,N  12,C  11)     92.5705         0.001500   
    331. D(C  42,N  41,N  12,C  11)    -85.4449         0.001500   
    332. D(C  42,N  41,N  12,C   7)     94.3061         0.001500   
    333. D(C  46,N  41,Fe  0,N  52)     -1.1774         0.003663   
    334. D(C  46,N  41,Fe  0,N  32)     94.1422         0.003663   
    335. D(C  46,N  41,Fe  0,N  21)    175.5497         0.003663   
    336. D(C  46,N  41,Fe  0,N   1)    -89.3616         0.003663   
    337. D(C  42,N  41,Fe  0,N  52)   -177.4125         0.003663   
    338. D(C  42,N  41,Fe  0,N  32)    -82.0930         0.003663   
    339. D(C  46,N  41,N  12,C   7)    -87.6786         0.001500   
    340. D(C  42,N  41,Fe  0,N  21)     -0.6854         0.003663   
    341. D(C  42,N  41,Fe  0,N   1)     94.4033         0.003663   
    342. D(H  60,C  42,N  41,C  46)    179.8617         0.032891   
    343. D(H  60,C  42,N  41,Fe  0)     -4.0453         0.032891   
    344. D(C  43,C  42,N  41,C  46)      0.2135         0.032891   
    345. D(C  43,C  42,N  41,Fe  0)    176.3064         0.032891   
    346. D(H  59,C  43,C  42,H  60)      0.1842         0.026302   
    347. D(H  59,C  43,C  42,N  41)    179.8175         0.026302   
    348. D(C  44,C  43,C  42,H  60)   -179.8903         0.026302   
    349. D(C  44,C  43,C  42,N  41)     -0.2570         0.026302   
    350. D(H  58,C  44,C  43,H  59)      0.1221         0.025122   
    351. D(H  58,C  44,C  43,C  42)   -179.8024         0.025122   
    352. D(C  45,C  44,C  43,H  59)   -179.9748         0.025122   
    353. D(C  45,C  44,C  43,C  42)      0.1006         0.025122   
    354. D(H  57,C  45,C  44,H  58)      0.2970         0.025794   
    355. D(H  57,C  45,C  44,C  43)   -179.6063         0.025794   
    356. D(C  46,C  45,C  44,H  58)    179.9892         0.025794   
    357. D(C  46,C  45,C  44,C  43)      0.0859         0.025794   
    358. D(C  47,C  46,C  45,H  57)     -0.3271         0.025438   
    359. D(C  47,C  46,C  45,C  44)    179.9823         0.025438   
    360. D(N  41,C  46,C  45,H  57)    179.5585         0.025438   
    361. D(N  41,C  46,C  45,C  44)     -0.1321         0.025438   
    362. D(C  47,C  46,N  41,C  42)    179.8807         0.029007   
    363. D(C  47,C  46,N  41,Fe  0)      3.3534         0.029007   
    364. D(C  45,C  46,N  41,C  42)     -0.0160         0.029007   
    365. D(C  45,C  46,N  41,Fe  0)   -176.5433         0.029007   
    366. D(N  52,C  47,C  46,C  45)    175.4006         0.015306   
    367. D(N  52,C  47,C  46,N  41)     -4.4921         0.015306   
    368. D(C  48,C  47,C  46,C  45)     -4.4033         0.015306   
    369. D(C  48,C  47,C  46,N  41)    175.7040         0.015306   
    370. D(H  56,C  48,C  47,N  52)    179.5454         0.025338   
    371. D(H  56,C  48,C  47,C  46)     -0.6639         0.025338   
    372. D(C  49,C  48,C  47,N  52)     -0.0399         0.025338   
    373. D(C  49,C  48,C  47,C  46)    179.7508         0.025338   
    374. D(H  55,C  49,C  48,H  56)      0.2949         0.025867   
    375. D(H  55,C  49,C  48,C  47)    179.8821         0.025867   
    376. D(C  50,C  49,C  48,H  56)   -179.4819         0.025867   
    377. D(C  50,C  49,C  48,C  47)      0.1054         0.025867   
    378. D(H  54,C  50,C  49,H  55)      0.2184         0.025145   
    379. D(H  54,C  50,C  49,C  48)    179.9945         0.025145   
    380. D(C  51,C  50,C  49,H  55)   -179.7356         0.025145   
    381. D(C  51,C  50,C  49,C  48)      0.0404         0.025145   
    382. D(H  53,C  51,C  50,H  54)      0.0418         0.026500   
    383. D(H  53,C  51,C  50,C  49)    179.9964         0.026500   
    384. D(N  52,C  51,C  50,H  54)    179.7793         0.026500   
    385. D(N  52,C  51,C  50,C  49)     -0.2661         0.026500   
    386. D(C  47,N  52,C  51,H  53)   -179.9196         0.032560   
    387. D(Fe  0,N  52,C  51,H  53)     -3.8552         0.032560   
    388. D(Fe  0,N  52,C  51,C  50)    176.3963         0.032560   
    389. D(C  51,N  52,C  47,C  48)     -0.1758         0.028824   
    390. D(C  51,N  52,C  47,C  46)   -179.9869         0.028824   
    391. D(Fe  0,N  52,C  47,C  48)   -176.6668         0.028824   
    392. D(Fe  0,N  52,C  47,C  46)      3.5221         0.028824   
    393. D(C  51,N  52,N  21,C  26)     94.3027         0.001500   
    394. D(C  51,N  52,N  21,C  22)    -84.3714         0.001500   
    395. D(C  47,N  52,N  21,C  26)    -87.5708         0.001500   
    396. D(C  47,N  52,N  21,C  22)     93.7551         0.001500   
    397. D(C  51,N  52,Fe  0,N  41)   -177.5731         0.003787   
    398. D(C  51,N  52,Fe  0,N  32)     95.4468         0.003787   
    399. D(C  51,N  52,Fe  0,N  12)     -0.6245         0.003787   
    400. D(C  51,N  52,Fe  0,N   1)    -82.5066         0.003787   
    401. D(C  47,N  52,Fe  0,N  41)     -1.3778         0.003787   
    402. D(C  47,N  52,Fe  0,N  32)    -88.3580         0.003787   
    403. D(C  47,N  52,C  51,C  50)      0.3319         0.032560   
    404. D(C  47,N  52,Fe  0,N  12)    175.5707         0.003787   
    405. D(C  47,N  52,Fe  0,N   1)     93.6886         0.003787   
    -----------------------------------------------------------------

Number of atoms                         .... 61
Number of degrees of freedom            .... 405

         *************************************************************
         *                GEOMETRY OPTIMIZATION CYCLE   1            *
         *************************************************************
---------------------------------
CARTESIAN COORDINATES (ANGSTROEM)
---------------------------------
  Fe    -0.011000    0.015000   -0.010000
  N      0.504000    1.649000    0.970000
  C      1.161000    1.697000    2.154000
  C      1.547000    2.899000    2.741000
  C      1.252000    4.101000    2.087000
  C      0.573000    4.058000    0.868000
  C      0.206000    2.823000    0.325000
  C     -0.523000    2.646000   -0.933000
  C     -1.006000    3.688000   -1.730000
  C     -1.699000    3.392000   -2.906000
  C     -1.897000    2.053000   -3.258000
  C     -1.395000    1.054000   -2.426000
  N     -0.717000    1.334000   -1.287000
  H     -1.519000    0.008000   -2.662000
  H     -2.430000    1.784000   -4.160000
  H     -2.079000    4.190000   -3.532000
  H     -0.850000    4.718000   -1.438000
  H      0.336000    4.977000    0.347000
  H      1.544000    5.051000    2.517000
  H      2.069000    2.892000    3.690000
  H      1.364000    0.747000    2.625000
  N     -1.804000   -0.108000    0.813000
  C     -2.325000    0.757000    1.717000
  C     -3.624000    0.631000    2.205000
  C     -4.424000   -0.420000    1.745000
  C     -3.896000   -1.311000    0.809000
  C     -2.586000   -1.136000    0.353000
  C     -1.925000   -1.996000   -0.632000
  C     -2.488000   -3.150000   -1.186000
  C     -1.761000   -3.889000   -2.121000
  C     -0.481000   -3.455000   -2.482000
  C      0.032000   -2.299000   -1.896000
  N     -0.670000   -1.576000   -0.990000
  H      1.015000   -1.933000   -2.152000
  H      0.112000   -4.001000   -3.205000
  H     -2.184000   -4.785000   -2.558000
  H     -3.477000   -3.472000   -0.890000
  H     -4.503000   -2.126000    0.436000
  H     -5.438000   -0.542000    2.105000
  H     -3.998000    1.344000    2.929000
  H     -1.678000    1.552000    2.055000
  N      0.838000   -1.229000    1.280000
  C      0.225000   -1.843000    2.321000
  C      0.883000   -2.763000    3.135000
  C      2.222000   -3.070000    2.868000
  C      2.858000   -2.443000    1.795000
  C      2.150000   -1.525000    1.014000
  C      2.707000   -0.805000   -0.134000
  C      4.042000   -0.876000   -0.544000
  C      4.460000   -0.148000   -1.659000
  C      3.527000    0.641000   -2.341000
  C      2.211000    0.677000   -1.887000
  N      1.796000   -0.031000   -0.807000
  H      1.465000    1.275000   -2.389000
  H      3.813000    1.220000   -3.210000
  H      5.492000   -0.192000   -1.987000
  H      4.751000   -1.485000    0.001000
  H      3.891000   -2.673000    1.570000
  H      2.758000   -3.783000    3.481000
  H      0.356000   -3.228000    3.958000
  H     -0.808000   -1.581000    2.499000

----------------------------
CARTESIAN COORDINATES (A.U.)
----------------------------
  NO LB      ZA    FRAG     MASS         X           Y           Z
   0 Fe   26.0000    0    55.850   -0.020787    0.028346   -0.018897
   1 N     7.0000    0    14.007    0.952422    3.116158    1.833034
   2 C     6.0000    0    12.011    2.193972    3.206865    4.070470
   3 C     6.0000    0    12.011    2.923406    5.478316    5.179739
   4 C     6.0000    0    12.011    2.365937    7.749767    3.943858
   5 C     6.0000    0    12.011    1.082813    7.668509    1.640282
   6 C     6.0000    0    12.011    0.389284    5.334697    0.614161
   7 C     6.0000    0    12.011   -0.988327    5.000215   -1.763114
   8 C     6.0000    0    12.011   -1.901064    6.969310   -3.269226
   9 C     6.0000    0    12.011   -3.210645    6.409951   -5.491544
  10 C     6.0000    0    12.011   -3.584810    3.879608   -6.156728
  11 C     6.0000    0    12.011   -2.636168    1.991771   -4.584476
  12 N     7.0000    0    14.007   -1.354934    2.520895   -2.432078
  13 H     1.0000    0     1.008   -2.870494    0.015118   -5.030451
  14 H     1.0000    0     1.008   -4.592035    3.371271   -7.861261
  15 H     1.0000    0     1.008   -3.928741    7.917953   -6.674513
  16 H     1.0000    0     1.008   -1.606267    8.915728   -2.717426
  17 H     1.0000    0     1.008    0.634948    9.405167    0.655735
  18 H     1.0000    0     1.008    2.917737    9.545007    4.756441
  19 H     1.0000    0     1.008    3.909843    5.465088    6.973089
  20 H     1.0000    0     1.008    2.577586    1.411625    4.960531
  21 N     7.0000    0    14.007   -3.409066   -0.204090    1.536347
  22 C     6.0000    0    12.011   -4.393613    1.430523    3.244660
  23 C     6.0000    0    12.011   -6.848368    1.192417    4.166846
  24 C     6.0000    0    12.011   -8.360148   -0.793685    3.297572
  25 C     6.0000    0    12.011   -7.362373   -2.477431    1.528788
  26 C     6.0000    0    12.011   -4.886832   -2.146729    0.667073
  27 C     6.0000    0    12.011   -3.637723   -3.771893   -1.194307
  28 C     6.0000    0    12.011   -4.701639   -5.952637   -2.241215
  29 C     6.0000    0    12.011   -3.327808   -7.349145   -4.008109
  30 C     6.0000    0    12.011   -0.908958   -6.529004   -4.690300
  31 C     6.0000    0    12.011    0.060471   -4.344480   -3.582921
  32 N     7.0000    0    14.007   -1.266117   -2.978208   -1.870829
  33 H     1.0000    0     1.008    1.918072   -3.652841   -4.066691
  34 H     1.0000    0     1.008    0.211649   -7.560794   -6.056572
  35 H     1.0000    0     1.008   -4.127162   -9.042340   -4.833919
  36 H     1.0000    0     1.008   -6.570578   -6.561129   -1.681856
  37 H     1.0000    0     1.008   -8.509437   -4.017558    0.823921
  38 H     1.0000    0     1.008  -10.276331   -1.024232    3.977874
  39 H     1.0000    0     1.008   -7.555125    2.539792    5.535008
  40 H     1.0000    0     1.008   -3.170960    2.932855    3.883387
  41 N     7.0000    0    14.007    1.583591   -2.322473    2.418849
  42 C     6.0000    0    12.011    0.425188   -3.482765    4.386054
  43 C     6.0000    0    12.011    1.668628   -5.221313    5.924291
  44 C     6.0000    0    12.011    4.198971   -5.801459    5.419735
  45 C     6.0000    0    12.011    5.400837   -4.616601    3.392058
  46 C     6.0000    0    12.011    4.062911   -2.881832    1.916182
  47 C     6.0000    0    12.011    5.115489   -1.521230   -0.253223
  48 C     6.0000    0    12.011    7.638273   -1.655400   -1.028011
  49 C     6.0000    0    12.011    8.428179   -0.279679   -3.135056
  50 C     6.0000    0    12.011    6.665064    1.211314   -4.423849
  51 C     6.0000    0    12.011    4.178184    1.279345   -3.565913
  52 N     7.0000    0    14.007    3.393948   -0.058582   -1.525009
  53 H     1.0000    0     1.008    2.768449    2.409401   -4.514556
  54 H     1.0000    0     1.008    7.205526    2.305466   -6.066021
  55 H     1.0000    0     1.008   10.378376   -0.362827   -3.754886
  56 H     1.0000    0     1.008    8.978089   -2.806243    0.001890
  57 H     1.0000    0     1.008    7.352924   -5.051238    2.966870
  58 H     1.0000    0     1.008    5.211865   -7.148834    6.578137
  59 H     1.0000    0     1.008    0.672743   -6.100036    7.479536
  60 H     1.0000    0     1.008   -1.526899   -2.987657    4.722426

--------------------------------
INTERNAL COORDINATES (ANGSTROEM)
--------------------------------
 Fe     0   0   0     0.000000000000     0.00000000     0.00000000
 N      1   0   0     1.973722624889     0.00000000     0.00000000
 C      2   1   0     1.354920292859   126.13862811     0.00000000
 C      3   2   1     1.392253209729   122.23921858   176.52959237
 C      4   3   2     1.399837490568   119.07319611   359.79300982
 C      5   4   3     1.396012535760   118.94753571     0.31984954
 C      2   1   3     1.372262729946   114.72252390   176.72030739
 C      7   2   1     1.464695872869   114.10409684     3.95342537
 C      8   7   2     1.397949212239   124.85872775   176.08599521
 C      9   8   7     1.396725098221   119.57005063   180.56693642
 C     10   9   8     1.398581066653   119.01565403     0.16101868
 C     11  10   9     1.393638762377   119.01513998   359.89468729
 N     12  11  10     1.354771198395   122.27823965   359.81846606
 H     12  11  10     1.079438743051   121.51494304   180.40366237
 H     11  10   9     1.081690343860   121.17969451   179.90509747
 H     10   9   8     1.083088177389   120.30309254   179.95522601
 H      9   8   7     1.081896483033   120.39315494     0.26033825
 H      6   5   4     1.082668462642   120.03483317   180.01005299
 H      5   4   3     1.082896116901   120.72721033   180.29899759
 H      4   3   2     1.083113105820   119.83154439   179.87884330
 H      3   2   1     1.079606409762   116.18292326   356.07559996
 N      1   2   3     1.976690921717    94.67287065    92.14796622
 C     22   1   2     1.355316199269   125.92202973     0.78866498
 C     23  22   1     1.393348843614   122.29479265   177.06468396
 C     24  23  22     1.398642556195   119.07904203   359.73813217
 C     25  24  23     1.395980300721   118.93362695   359.94872951
 C     22   1   2     1.371097370722   115.10722712   177.35983483
 C     27  22   1     1.465177804910   114.09944859     2.42035891
 C     28  27  22     1.398428046057   124.68517673   176.10085520
 C     29  28  27     1.396021131645   119.50568004   179.84646295
 C     30  29  28     1.398955681928   119.01843492     0.00000000
 C     31  30  29     1.393879837002   119.04807948     0.11339178
 N     32  31  30     1.355126931324   122.20130739   359.74155583
 H     32  31  30     1.079713387895   121.09916115   180.14140079
 H     31  30  29     1.082817620839   121.12770708   180.10965313
 H     30  29  28     1.082919202896   120.32125639   179.96917531
 H     29  28  27     1.081397706674   120.36301865   359.54083903
 H     26  25  24     1.082498498844   119.96601909   180.46431745
 H     25  24  23     1.082903504473   120.72447690   180.11237356
 H     24  23  22     1.082783911960   119.77888673   179.82537749
 H     23  22   1     1.079295140358   116.65100943   356.41923145
 N      1   2   3     1.983037316845    94.85507330   357.21707815
 C     42   1   2     1.355155341649   126.17676462    94.40329331
 C     43  42   1     1.393542249090   122.29259311   176.30643871
 C     44  43  42     1.399449534639   119.02325218   359.74295324
 C     45  44  43     1.396049426059   118.94747362     0.10062408
 C     42   1   2     1.371027352025   114.76672244   270.63844307
 C     47  42   1     1.465111941116   114.18799527     3.35342060
 C     48  47  42     1.398344020619   124.59307566   175.70398529
 C     49  48  47     1.395683703423   119.58286117   179.75077452
 C     50  49  48     1.399333412736   118.93232669     0.10535486
 C     51  50  49     1.392576030240   119.06275159     0.04044373
 N     52  51  50     1.356425080865   122.35816936   359.73389546
 H     52  51  50     1.079872214662   121.03732699   179.99639101
 H     51  50  49     1.082680931762   121.10382854   179.99448322
 H     50  49  48     1.083763811907   120.38426284   179.88213305
 H     49  48  47     1.081936689460   120.43142318   359.33613610
 H     46  45  44     1.081949167013   119.95514663   180.39366427
 H     45  44  43     1.082328046389   120.68342872   180.19761078
 H     44  43  42     1.082258287102   119.86277588   179.81745341
 H     43  42   1     1.080470730747   116.68964445   355.95468075

---------------------------
INTERNAL COORDINATES (A.U.)
---------------------------
 Fe     0   0   0     0.000000000000     0.00000000     0.00000000
 N      1   0   0     3.729795225365     0.00000000     0.00000000
 C      2   1   0     2.560428286795   126.13862811     0.00000000
 C      3   2   1     2.630977275460   122.23921858   176.52959237
 C      4   3   2     2.645309489169   119.07319611   359.79300982
 C      5   4   3     2.638081372108   118.94753571     0.31984954
 C      2   1   3     2.593200743386   114.72252390   176.72030739
 C      7   2   1     2.767874069207   114.10409684     3.95342537
 C      8   7   2     2.641741160263   124.85872775   176.08599521
 C      9   8   7     2.639427920012   119.57005063   180.56693642
 C     10   9   8     2.642935192061   119.01565403     0.16101868
 C     11  10   9     2.633595590510   119.01513998   359.89468729
 N     12  11  10     2.560146539090   122.27823965   359.81846606
 H     12  11  10     2.039843602711   121.51494304   180.40366237
 H     11  10   9     2.044098511603   121.17969451   179.90509747
 H     10   9   8     2.046740034153   120.30309254   179.95522601
 H      9   8   7     2.044488058186   120.39315494     0.26033825
 H      6   5   4     2.045946888227   120.03483317   180.01005299
 H      5   4   3     2.046377092430   120.72721033   180.29899759
 H      4   3   2     2.046787142061   119.83154439   179.87884330
 H      3   2   1     2.040160446877   116.18292326   356.07559996
 N      1   2   3     3.735404493454    94.67287065    92.14796622
 C     22   1   2     2.561176441485   125.92202973     0.78866498
 C     23  22   1     2.633047723446   122.29479265   177.06468396
 C     24  23  22     2.643051390456   119.07904203   359.73813217
 C     25  24  23     2.638020456711   118.93362695   359.94872951
 C     22   1   2     2.590998533604   115.10722712   177.35983483
 C     27  22   1     2.768784788779   114.09944859     2.42035891
 C     28  27  22     2.642646025043   124.68517673   176.10085520
 C     29  28  27     2.638097615976   119.50568004   179.84646295
 C     30  29  28     2.643643112338   119.01843492     0.00000000
 C     31  30  29     2.634051155528   119.04807948     0.11339178
 N     32  31  30     2.560818776904   122.20130739   359.74155583
 H     32  31  30     2.040362606250   121.09916115   180.14140079
 H     31  30  29     2.046228756370   121.12770708   180.10965313
 H     30  29  28     2.046420718637   120.32125639   179.96917531
 H     29  28  27     2.043545507465   120.36301865   359.54083903
 H     26  25  24     2.045625703196   119.96601909   180.46431745
 H     25  24  23     2.046391052918   120.72447690   180.11237356
 H     24  23  22     2.046165055821   119.77888673   179.82537749
 H     23  22   1     2.039572232948   116.65100943   356.41923145
 N      1   2   3     3.747397442183    94.85507330   357.21707815
 C     42   1   2     2.560872464637   126.17676462    94.40329331
 C     43  42   1     2.633413206830   122.29259311   176.30643871
 C     44  43  42     2.644576358710   119.02325218   359.74295324
 C     45  44  43     2.638151084670   118.94747362     0.10062408
 C     42   1   2     2.590866217442   114.76672244   270.63844307
 C     47  42   1     2.768660324247   114.18799527     3.35342060
 C     48  47  42     2.642487239976   124.59307566   175.70398529
 C     49  48  47     2.637459969046   119.58286117   179.75077452
 C     50  49  48     2.644356920117   118.93232669     0.10535486
 C     51  50  49     2.631587317818   119.06275159     0.04044373
 N     52  51  50     2.563271924017   122.35816936   359.73389546
 H     52  51  50     2.040662745343   121.03732699   179.99639101
 H     51  50  49     2.045970451448   121.10382854   179.99448322
 H     50  49  48     2.048016798359   120.38426284   179.88213305
 H     49  48  47     2.044564037321   120.43142318   359.33613610
 H     46  45  44     2.044587616479   119.95514663   180.39366427
 H     45  44  43     2.045303594737   120.68342872   180.19761078
 H     44  43  42     2.045171768789   119.86277588   179.81745341
 H     43  42   1     2.041793776829   116.68964445   355.95468075

---------------------
BASIS SET INFORMATION
---------------------
There are 4 groups of distinct atoms

 Group   1 Type Fe  : 22s16p4d1f contracted to 5s4p2d1f pattern {66631/6631/31/1}
 Group   2 Type N   : 10s4p1d contracted to 3s2p1d pattern {631/31/1}
 Group   3 Type C   : 10s4p1d contracted to 3s2p1d pattern {631/31/1}
 Group   4 Type H   : 4s contracted to 2s pattern {31}

Atom   0Fe   basis set group =>   1
Atom   1N    basis set group =>   2
Atom   2C    basis set group =>   3
Atom   3C    basis set group =>   3
Atom   4C    basis set group =>   3
Atom   5C    basis set group =>   3
Atom   6C    basis set group =>   3
Atom   7C    basis set group =>   3
Atom   8C    basis set group =>   3
Atom   9C    basis set group =>   3
Atom  10C    basis set group =>   3
Atom  11C    basis set group =>   3
Atom  12N    basis set group =>   2
Atom  13H    basis set group =>   4
Atom  14H    basis set group =>   4
Atom  15H    basis set group =>   4
Atom  16H    basis set group =>   4
Atom  17H    basis set group =>   4
Atom  18H    basis set group =>   4
Atom  19H    basis set group =>   4
Atom  20H    basis set group =>   4
Atom  21N    basis set group =>   2
Atom  22C    basis set group =>   3
Atom  23C    basis set group =>   3
Atom  24C    basis set group =>   3
Atom  25C    basis set group =>   3
Atom  26C    basis set group =>   3
Atom  27C    basis set group =>   3
Atom  28C    basis set group =>   3
Atom  29C    basis set group =>   3
Atom  30C    basis set group =>   3
Atom  31C    basis set group =>   3
Atom  32N    basis set group =>   2
Atom  33H    basis set group =>   4
Atom  34H    basis set group =>   4
Atom  35H    basis set group =>   4
Atom  36H    basis set group =>   4
Atom  37H    basis set group =>   4
Atom  38H    basis set group =>   4
Atom  39H    basis set group =>   4
Atom  40H    basis set group =>   4
Atom  41N    basis set group =>   2
Atom  42C    basis set group =>   3
Atom  43C    basis set group =>   3
Atom  44C    basis set group =>   3
Atom  45C    basis set group =>   3
Atom  46C    basis set group =>   3
Atom  47C    basis set group =>   3
Atom  48C    basis set group =>   3
Atom  49C    basis set group =>   3
Atom  50C    basis set group =>   3
Atom  51C    basis set group =>   3
Atom  52N    basis set group =>   2
Atom  53H    basis set group =>   4
Atom  54H    basis set group =>   4
Atom  55H    basis set group =>   4
Atom  56H    basis set group =>   4
Atom  57H    basis set group =>   4
Atom  58H    basis set group =>   4
Atom  59H    basis set group =>   4
Atom  60H    basis set group =>   4
---------------------------------
AUXILIARY/J BASIS SET INFORMATION
---------------------------------
There are 4 groups of distinct atoms

 Group   1 Type Fe  : 19s5p5d3f3g contracted to 8s5p5d2f3g pattern {121111111/11111/11111/21/111}
 Group   2 Type N   : 12s5p4d2f1g contracted to 6s4p3d1f1g pattern {711111/2111/211/2/1}
 Group   3 Type C   : 12s5p4d2f1g contracted to 6s4p3d1f1g pattern {711111/2111/211/2/1}
 Group   4 Type H   : 5s2p1d contracted to 3s1p1d pattern {311/2/1}

Atom   0Fe   basis set group =>   1
Atom   1N    basis set group =>   2
Atom   2C    basis set group =>   3
Atom   3C    basis set group =>   3
Atom   4C    basis set group =>   3
Atom   5C    basis set group =>   3
Atom   6C    basis set group =>   3
Atom   7C    basis set group =>   3
Atom   8C    basis set group =>   3
Atom   9C    basis set group =>   3
Atom  10C    basis set group =>   3
Atom  11C    basis set group =>   3
Atom  12N    basis set group =>   2
Atom  13H    basis set group =>   4
Atom  14H    basis set group =>   4
Atom  15H    basis set group =>   4
Atom  16H    basis set group =>   4
Atom  17H    basis set group =>   4
Atom  18H    basis set group =>   4
Atom  19H    basis set group =>   4
Atom  20H    basis set group =>   4
Atom  21N    basis set group =>   2
Atom  22C    basis set group =>   3
Atom  23C    basis set group =>   3
Atom  24C    basis set group =>   3
Atom  25C    basis set group =>   3
Atom  26C    basis set group =>   3
Atom  27C    basis set group =>   3
Atom  28C    basis set group =>   3
Atom  29C    basis set group =>   3
Atom  30C    basis set group =>   3
Atom  31C    basis set group =>   3
Atom  32N    basis set group =>   2
Atom  33H    basis set group =>   4
Atom  34H    basis set group =>   4
Atom  35H    basis set group =>   4
Atom  36H    basis set group =>   4
Atom  37H    basis set group =>   4
Atom  38H    basis set group =>   4
Atom  39H    basis set group =>   4
Atom  40H    basis set group =>   4
Atom  41N    basis set group =>   2
Atom  42C    basis set group =>   3
Atom  43C    basis set group =>   3
Atom  44C    basis set group =>   3
Atom  45C    basis set group =>   3
Atom  46C    basis set group =>   3
Atom  47C    basis set group =>   3
Atom  48C    basis set group =>   3
Atom  49C    basis set group =>   3
Atom  50C    basis set group =>   3
Atom  51C    basis set group =>   3
Atom  52N    basis set group =>   2
Atom  53H    basis set group =>   4
Atom  54H    basis set group =>   4
Atom  55H    basis set group =>   4
Atom  56H    basis set group =>   4
Atom  57H    basis set group =>   4
Atom  58H    basis set group =>   4
Atom  59H    basis set group =>   4
Atom  60H    basis set group =>   4


           ************************************************************
           *        Program running with 32 parallel MPI-processes    *
           *              working on a common directory               *
           ************************************************************
------------------------------------------------------------------------------
                           ORCA GTO INTEGRAL CALCULATION
                           -- RI-GTO INTEGRALS CHOSEN --
------------------------------------------------------------------------------
------------------------------------------------------------------------------
                   ___                                                        
                  /   \      - P O W E R E D   B Y -                         
                 /     \                                                     
                 |  |  |   _    _      __       _____    __    __             
                 |  |  |  | |  | |    /  \     |  _  \  |  |  /  |          
                  \  \/   | |  | |   /    \    | | | |  |  | /  /          
                 / \  \   | |__| |  /  /\  \   | |_| |  |  |/  /          
                |  |  |   |  __  | /  /__\  \  |    /   |      \           
                |  |  |   | |  | | |   __   |  |    \   |  |\   \          
                \     /   | |  | | |  |  |  |  | |\  \  |  | \   \       
                 \___/    |_|  |_| |__|  |__|  |_| \__\ |__|  \__/        
                                                                              
                      - O R C A' S   B I G   F R I E N D -                    
                                      &                                       
                       - I N T E G R A L  F E E D E R -                       
                                                                              
 v1 FN, 2020, v2 2021                                                         
------------------------------------------------------------------------------


Reading SHARK input file Fe_plus2_small_opt.orca.SHARKINP.tmp ... ok
----------------------
SHARK INTEGRAL PACKAGE
----------------------

Number of atoms                             ...     61
Number of basis functions                   ...    586
Number of shells                            ...    276
Maximum angular momentum                    ...      3
Integral batch strategy                     ... SHARK/LIBINT Hybrid
RI-J (if used) integral strategy            ... SPLIT-RIJ (Revised 2003 algorithm where possible)
Printlevel                                  ...      1
Contraction scheme used                     ... SEGMENTED contraction
Coulomb Range Separation                    ... NOT USED
Exchange Range Separation                   ... NOT USED
Finite Nucleus Model                        ... NOT USED
Auxiliary Coulomb fitting basis             ... AVAILABLE
   # of basis functions in Aux-J            ...   2117
   # of shells in Aux-J                     ...    683
   Maximum angular momentum in Aux-J        ...      4
Auxiliary J/K fitting basis                 ... NOT available
Auxiliary Correlation fitting basis         ... NOT available
Auxiliary 'external' fitting basis          ... NOT available
Integral threshold                          ...     2.500000e-11
Primitive cut-off                           ...     2.500000e-12
Primitive pair pre-selection threshold      ...     2.500000e-12

Calculating pre-screening integrals         ... done (  0.0 sec) Dimension = 276
Organizing shell pair data                  ... done (  0.6 sec)
Shell pair information
Total number of shell pairs                 ...     38226
Shell pairs after pre-screening             ...     26842
Total number of primitive shell pairs       ...    231772
Primitive shell pairs kept                  ...     81580
          la=0 lb=0:   8331 shell pairs
          la=1 lb=0:   9492 shell pairs
          la=1 lb=1:   2594 shell pairs
          la=2 lb=0:   3595 shell pairs
          la=2 lb=1:   2211 shell pairs
          la=2 lb=2:    379 shell pairs
          la=3 lb=0:    125 shell pairs
          la=3 lb=1:     76 shell pairs
          la=3 lb=2:     38 shell pairs
          la=3 lb=3:      1 shell pairs

Calculating one electron integrals          ... done (  0.0 sec)
Calculating RI/J V-Matrix + Cholesky decomp.... done (  3.8 sec)
Calculating Nuclear repulsion               ... done (  0.0 sec) ENN=   4879.096604568663 Eh

SHARK setup successfully completed in   5.7 seconds

Maximum memory used throughout the entire GTOINT-calculation: 49.0 MB


           ************************************************************
           *        Program running with 32 parallel MPI-processes    *
           *              working on a common directory               *
           ************************************************************
-------------------------------------------------------------------------------
                                 ORCA SCF
-------------------------------------------------------------------------------

------------
SCF SETTINGS
------------
Hamiltonian:
 Density Functional     Method          .... DFT(GTOs)
 Exchange Functional    Exchange        .... B88
   X-Alpha parameter    XAlpha          ....  0.666667
   Becke's b parameter  XBeta           ....  0.004200
 Correlation Functional Correlation     .... LYP
 LDA part of GGA corr.  LDAOpt          .... VWN-5
 Gradients option       PostSCFGGA      .... off
 Hybrid DFT is turned on
   Fraction HF Exchange ScalHFX         ....  0.200000
   Scaling of DF-GGA-X  ScalDFX         ....  0.720000
   Scaling of DF-GGA-C  ScalDFC         ....  0.810000
   Scaling of DF-LDA-C  ScalLDAC        ....  1.000000
   Perturbative correction              ....  0.000000
   Density functional embedding theory  .... OFF
   NL short-range parameter             ....  4.800000
 RI-approximation to the Coulomb term is turned on
   Number of AuxJ basis functions       .... 2117
   RIJ-COSX (HFX calculated with COS-X)).... on


General Settings:
 Integral files         IntName         .... Fe_plus2_small_opt.orca
 Hartree-Fock type      HFTyp           .... RHF
 Total Charge           Charge          ....    2
 Multiplicity           Mult            ....    1
 Number of Electrons    NEL             ....  270
 Basis Dimension        Dim             ....  586
 Nuclear Repulsion      ENuc            ....   4879.0966045687 Eh

Convergence Acceleration:
 DIIS                   CNVDIIS         .... on
   Start iteration      DIISMaxIt       ....    12
   Startup error        DIISStart       ....  0.200000
   # of expansion vecs  DIISMaxEq       ....     5
   Bias factor          DIISBfac        ....   1.050
   Max. coefficient     DIISMaxC        ....  10.000
 Trust-Rad. Augm. Hess. CNVTRAH         .... auto
   Auto Start mean grad. ratio tolernc. ....  1.125000
   Auto Start start iteration           ....    20
   Auto Start num. interpolation iter.  ....    10
   Max. Number of Micro iterations      ....    16
   Max. Number of Macro iterations      .... Maxiter - #DIIS iter
   Number of Davidson start vectors     ....     2
   Converg. threshold I  (grad. norm)   ....   1.000e-05
   Converg. threshold II (energy diff.) ....   1.000e-08
   Grad. Scal. Fac. for Micro threshold ....   0.100
   Minimum threshold for Micro iter.    ....   0.010
   NR start threshold (gradient norm)   ....   0.001
   Initial trust radius                 ....   0.400
   Minimum AH scaling param. (alpha)    ....   1.000
   Maximum AH scaling param. (alpha)    .... 1000.000
   Orbital update algorithm             .... Taylor
   White noise on init. David. guess    .... on
   Maximum white noise                  ....   0.010
   Quad. conv. algorithm                .... NR
 SOSCF                  CNVSOSCF        .... off
 Level Shifting         CNVShift        .... on
   Level shift para.    LevelShift      ....    0.2500
   Turn off err/grad.   ShiftErr        ....    0.0010
 Zerner damping         CNVZerner       .... off
 Static damping         CNVDamp         .... on
   Fraction old density DampFac         ....    0.7000
   Max. Damping (<1)    DampMax         ....    0.9800
   Min. Damping (>=0)   DampMin         ....    0.0000
   Turn off err/grad.   DampErr         ....    0.1000
 Fernandez-Rico         CNVRico         .... off

SCF Procedure:
 Maximum # iterations   MaxIter         ....   125
 SCF integral mode      SCFMode         .... Direct
   Integral package                     .... SHARK and LIBINT hybrid scheme
 Reset frequency        DirectResetFreq ....    20
 Integral Threshold     Thresh          ....  2.500e-11 Eh
 Primitive CutOff       TCut            ....  2.500e-12 Eh

Convergence Tolerance:
 Convergence Check Mode ConvCheckMode   .... Total+1el-Energy
 Convergence forced     ConvForced      .... 0
 Energy Change          TolE            ....  1.000e-08 Eh
 1-El. energy change                    ....  1.000e-05 Eh
 DIIS Error             TolErr          ....  5.000e-07


Diagonalization of the overlap matrix:
Smallest eigenvalue                        ... 5.528e-04
Time for diagonalization                   ...    0.094 sec
Threshold for overlap eigenvalues          ... 1.000e-08
Number of eigenvalues below threshold      ... 0
Time for construction of square roots      ...    0.244 sec
Total time needed                          ...    0.341 sec

Time for model grid setup =    1.608 sec

------------------------------
INITIAL GUESS: MODEL POTENTIAL
------------------------------
Loading Hartree-Fock densities                     ... done
Calculating cut-offs                               ... done
Initializing the effective Hamiltonian             ... done
Setting up the integral package (SHARK)            ... done
Starting the Coulomb interaction                   ... done (   0.4 sec)
Reading the grid                                   ... done
Mapping shells                                     ... done
Starting the XC term evaluation                    ... done (   0.1 sec)
  promolecular density results
     # of electrons  =    271.998505858
     EX              =   -255.435788514
     EC              =     -9.611282805
     EX+EC           =   -265.047071319
Transforming the Hamiltonian                       ... done (   0.1 sec)
Diagonalizing the Hamiltonian                      ... done (   0.1 sec)
Back transforming the eigenvectors                 ... done (   0.0 sec)
Now organizing SCF variables                       ... done
                      ------------------
                      INITIAL GUESS DONE (   2.5 sec)
                      ------------------
-------------------
DFT GRID GENERATION
-------------------

General Integration Accuracy     IntAcc      ... 4.388
Radial Grid Type                 RadialGrid  ... OptM3 with GC (2021)
Angular Grid (max. ang.)         AngularGrid ... 4 (Lebedev-302)
Angular grid pruning method      GridPruning ... 4 (adaptive)
Weight generation scheme         WeightScheme... Becke
Basis function cutoff            BFCut       ... 1.0000e-11
Integration weight cutoff        WCut        ... 1.0000e-14
Angular grids for H and He will be reduced by one unit
Partially contracted basis set               ... off
Rotationally invariant grid construction     ... off

Total number of grid points                  ...   299631
Total number of batches                      ...     4714
Average number of points per batch           ...       63
Average number of grid points per atom       ...     4912
Time for grid setup =    2.729 sec

--------------------
COSX GRID GENERATION
--------------------

GRIDX 1
-------
General Integration Accuracy     IntAcc      ... 3.816
Radial Grid Type                 RadialGrid  ... OptM3 with GC (2021)
Angular Grid (max. ang.)         AngularGrid ... 1 (Lebedev-50)
Angular grid pruning method      GridPruning ... 4 (adaptive)
Weight generation scheme         WeightScheme... Becke
Basis function cutoff            BFCut       ... 1.0000e-11
Integration weight cutoff        WCut        ... 1.0000e-14
Angular grids for H and He will be reduced by one unit
Partially contracted basis set               ... on
Rotationally invariant grid construction     ... off

Total number of grid points                  ...    37754
Total number of batches                      ...      615
Average number of points per batch           ...       61
Average number of grid points per atom       ...      619
UseSFitting                                  ... on

GRIDX 2
-------
General Integration Accuracy     IntAcc      ... 4.020
Radial Grid Type                 RadialGrid  ... OptM3 with GC (2021)
Angular Grid (max. ang.)         AngularGrid ... 2 (Lebedev-110)
Angular grid pruning method      GridPruning ... 4 (adaptive)
Weight generation scheme         WeightScheme... Becke
Basis function cutoff            BFCut       ... 1.0000e-11
Integration weight cutoff        WCut        ... 1.0000e-14
Angular grids for H and He will be reduced by one unit
Partially contracted basis set               ... on
Rotationally invariant grid construction     ... off

Total number of grid points                  ...    81581
Total number of batches                      ...     1311
Average number of points per batch           ...       62
Average number of grid points per atom       ...     1337
UseSFitting                                  ... on

GRIDX 3
-------
General Integration Accuracy     IntAcc      ... 4.338
Radial Grid Type                 RadialGrid  ... OptM3 with GC (2021)
Angular Grid (max. ang.)         AngularGrid ... 3 (Lebedev-194)
Angular grid pruning method      GridPruning ... 4 (adaptive)
Weight generation scheme         WeightScheme... Becke
Basis function cutoff            BFCut       ... 1.0000e-11
Integration weight cutoff        WCut        ... 1.0000e-14
Angular grids for H and He will be reduced by one unit
Partially contracted basis set               ... on
Rotationally invariant grid construction     ... off

Total number of grid points                  ...   177701
Total number of batches                      ...     2805
Average number of points per batch           ...       63
Average number of grid points per atom       ...     2913
UseSFitting                                  ... on

Time for X-Grid setup             =    5.956 sec

--------------
SCF ITERATIONS
--------------
ITER       Energy         Delta-E        Max-DP      RMS-DP      [F,P]     Damp
               ***  Starting incremental Fock matrix formation  ***
  0  -2747.8693599964   0.000000000000 0.06090877  0.00099776  0.1759631 0.7000
  1  -2748.1118017670  -0.242441770610 0.03263384  0.00067400  0.0653111 0.7000
                               ***Turning on DIIS***
  2  -2748.2194982291  -0.107696462038 0.08825160  0.00134866  0.0368513 0.0000
  3  -2748.3825355884  -0.163037359350 0.01638205  0.00020369  0.1233846 0.7000
  4  -2748.4048463226  -0.022310734224 0.03840944  0.00056381  0.0729683 0.0000
  5  -2748.4313815784  -0.026535255759 0.00926353  0.00012630  0.0308440 0.0000
  6  -2748.4338855249  -0.002503946502 0.00511052  0.00005587  0.0026729 0.0000
  7  -2748.4340462019  -0.000160677014 0.00241079  0.00002721  0.0089341 0.0000
  8  -2748.4342056416  -0.000159439719 0.00125012  0.00001614  0.0021541 0.0000
  9  -2748.4342454611  -0.000039819497 0.00086038  0.00001136  0.0025260 0.0000
 10  -2748.4342649174  -0.000019456256 0.00115215  0.00001552  0.0003716 0.0000
               *** Restarting incremental Fock matrix formation ***
                                   *** Resetting DIIS ***
 11  -2748.4342346978   0.000030219574 0.00114465  0.00001225  0.0010431 0.0000
 12  -2748.4342268143   0.000007883561 0.00062785  0.00000599  0.0027951 0.0000
 13  -2748.4342356940  -0.000008879714 0.00032058  0.00000380  0.0006560 0.0000
 14  -2748.4342368963  -0.000001202358 0.00009606  0.00000102  0.0002260 0.0000
 15  -2748.4342370679  -0.000000171618 0.00002835  0.00000047  0.0000115 0.0000
 16  -2748.4342370874  -0.000000019450 0.00001501  0.00000024  0.0000325 0.0000
 17  -2748.4342370862   0.000000001175 0.00001129  0.00000010  0.0000170 0.0000
 18  -2748.4342371008  -0.000000014621 0.00000790  0.00000005  0.0000036 0.0000
 19  -2748.4342370826   0.000000018211 0.00000536  0.00000005  0.0000077 0.0000
 20  -2748.4342370555   0.000000027132 0.00000192  0.00000002  0.0000035 0.0000
[...]
      py      :     1.091212
      dz2     :     0.032375  d :     0.122168
      dxz     :     0.024037
      dyz     :     0.031788
      dx2y2   :     0.020585
      dxy     :     0.013383
 12 N s       :     3.155435  s :     3.155435
      pz      :     1.260873  p :     3.801912
      px      :     1.245413
      py      :     1.295625
      dz2     :     0.023429  d :     0.092750
      dxz     :     0.014614
      dyz     :     0.020554
      dx2y2   :     0.019088
      dxy     :     0.015065
 13 H s       :     0.837736  s :     0.837736
 14 H s       :     0.831291  s :     0.831291
 15 H s       :     0.830256  s :     0.830256
 16 H s       :     0.838442  s :     0.838442
 17 H s       :     0.838440  s :     0.838440
 18 H s       :     0.830265  s :     0.830265
 19 H s       :     0.831294  s :     0.831294
 20 H s       :     0.837779  s :     0.837779
 21 N s       :     3.155407  s :     3.155407
      pz      :     1.221601  p :     3.802014
      px      :     1.396583
      py      :     1.183830
      dz2     :     0.016950  d :     0.092740
      dxz     :     0.017395
      dyz     :     0.017173
      dx2y2   :     0.016538
      dxy     :     0.024685
 22 C s       :     2.899582  s :     2.899582
      pz      :     0.961354  p :     3.020030
      px      :     1.058096
      py      :     1.000580
      dz2     :     0.019454  d :     0.122154
      dxz     :     0.028339
      dyz     :     0.020138
      dx2y2   :     0.023434
      dxy     :     0.030790
 23 C s       :     2.921651  s :     2.921651
      pz      :     1.016616  p :     3.104285
      px      :     1.051243
      py      :     1.036426
      dz2     :     0.009416  d :     0.083382
      dxz     :     0.017024
      dyz     :     0.013860
      dx2y2   :     0.022100
      dxy     :     0.020982
 24 C s       :     2.922125  s :     2.922125
      pz      :     0.976387  p :     3.055632
      px      :     1.075280
      py      :     1.003965
      dz2     :     0.013235  d :     0.085595
      dxz     :     0.015481
      dyz     :     0.016020
      dx2y2   :     0.022226
      dxy     :     0.018633
 25 C s       :     2.914606  s :     2.914606
      pz      :     1.015742  p :     3.109507
      px      :     1.047844
      py      :     1.045921
      dz2     :     0.011687  d :     0.082603
      dxz     :     0.018716
      dyz     :     0.012544
      dx2y2   :     0.019392
      dxy     :     0.020263
 26 C s       :     2.849705  s :     2.849705
      pz      :     0.976947  p :     2.971472
      px      :     1.032663
      py      :     0.961862
      dz2     :     0.019907  d :     0.137688
      dxz     :     0.025968
      dyz     :     0.020999
      dx2y2   :     0.031434
      dxy     :     0.039380
 27 C s       :     2.849684  s :     2.849684
      pz      :     0.983027  p :     2.971456
      px      :     0.969309
      py      :     1.019121
      dz2     :     0.019816  d :     0.137678
      dxz     :     0.027493
      dyz     :     0.018344
      dx2y2   :     0.033374
      dxy     :     0.038651
 28 C s       :     2.914560  s :     2.914560
      pz      :     1.012023  p :     3.109600
      px      :     1.073195
      py      :     1.024381
      dz2     :     0.012508  d :     0.082623
      dxz     :     0.014697
      dyz     :     0.016072
      dx2y2   :     0.021266
      dxy     :     0.018081
 29 C s       :     2.922104  s :     2.922104
      pz      :     0.977920  p :     3.055574
      px      :     1.048112
      py      :     1.029542
      dz2     :     0.012074  d :     0.085609
      dxz     :     0.019018
      dyz     :     0.012961
      dx2y2   :     0.019859
      dxy     :     0.021698
 30 C s       :     2.921602  s :     2.921602
      pz      :     1.015321  p :     3.104408
      px      :     1.059161
      py      :     1.029927
      dz2     :     0.009202  d :     0.083387
      dxz     :     0.017825
      dyz     :     0.013464
      dx2y2   :     0.020230
      dxy     :     0.022665
 31 C s       :     2.899555  s :     2.899555
      pz      :     0.961252  p :     3.020001
      px      :     1.048513
      py      :     1.010236
      dz2     :     0.021149  d :     0.122178
      dxz     :     0.020736
      dyz     :     0.026480
      dx2y2   :     0.028481
      dxy     :     0.025331
 32 N s       :     3.155715  s :     3.155715
      pz      :     1.240682  p :     3.801910
      px      :     1.204962
      py      :     1.356266
      dz2     :     0.017252  d :     0.092635
      dxz     :     0.018904
      dyz     :     0.013676
      dx2y2   :     0.021518
      dxy     :     0.021286
 33 H s       :     0.837801  s :     0.837801
 34 H s       :     0.831281  s :     0.831281
 35 H s       :     0.830251  s :     0.830251
 36 H s       :     0.838421  s :     0.838421
 37 H s       :     0.838435  s :     0.838435
 38 H s       :     0.830246  s :     0.830246
 39 H s       :     0.831276  s :     0.831276
 40 H s       :     0.837630  s :     0.837630
 41 N s       :     3.155641  s :     3.155641
      pz      :     1.269731  p :     3.801882
      px      :     1.223801
      py      :     1.308350
      dz2     :     0.021251  d :     0.092650
      dxz     :     0.020652
      dyz     :     0.012692
      dx2y2   :     0.020372
      dxy     :     0.017684
 42 C s       :     2.899551  s :     2.899551
      pz      :     0.974911  p :     3.020191
      px      :     1.064518
      py      :     0.980762
      dz2     :     0.029371  d :     0.122190
      dxz     :     0.026877
      dyz     :     0.025590
      dx2y2   :     0.023235
      dxy     :     0.017116
 43 C s       :     2.921632  s :     2.921632
      pz      :     1.040337  p :     3.104411
      px      :     1.064401
      py      :     0.999673
      dz2     :     0.012736  d :     0.083378
      dxz     :     0.023358
      dyz     :     0.011779
      dx2y2   :     0.017028
      dxy     :     0.018477
 44 C s       :     2.922139  s :     2.922139
      pz      :     1.015190  p :     3.055590
      px      :     1.062359
      py      :     0.978041
      dz2     :     0.014681  d :     0.085590
      dxz     :     0.024001
      dyz     :     0.012832
      dx2y2   :     0.015897
      dxy     :     0.018179
 45 C s       :     2.914578  s :     2.914578
      pz      :     1.028318  p :     3.109531
      px      :     1.079412
      py      :     1.001801
      dz2     :     0.016852  d :     0.082614
      dxz     :     0.019799
      dyz     :     0.015395
      dx2y2   :     0.017334
      dxy     :     0.013234
 46 C s       :     2.849687  s :     2.849687
      pz      :     1.001552  p :     2.971263
      px      :     0.974961
      py      :     0.994750
      dz2     :     0.025164  d :     0.137672
      dxz     :     0.034117
      dyz     :     0.015770
      dx2y2   :     0.030987
      dxy     :     0.031633
 47 C s       :     2.849720  s :     2.849720
      pz      :     0.981082  p :     2.971223
      px      :     1.032064
      py      :     0.958076
      dz2     :     0.025657  d :     0.137677
      dxz     :     0.034359
      dyz     :     0.018640
      dx2y2   :     0.027530
      dxy     :     0.031490
 48 C s       :     2.914597  s :     2.914597
      pz      :     1.040417  p :     3.109535
      px      :     1.055389
      py      :     1.013729
      dz2     :     0.014511  d :     0.082601
      dxz     :     0.023886
      dyz     :     0.012446
      dx2y2   :     0.015503
      dxy     :     0.016255
 49 C s       :     2.922121  s :     2.922121
      pz      :     1.009947  p :     3.055609
      px      :     1.085628
      py      :     0.960034
      dz2     :     0.018085  d :     0.085601
      dxz     :     0.020920
      dyz     :     0.014979
      dx2y2   :     0.018235
      dxy     :     0.013382
 50 C s       :     2.921637  s :     2.921637
      pz      :     1.045689  p :     3.104402
      px      :     1.056389
      py      :     1.002325
      dz2     :     0.013944  d :     0.083387
      dxz     :     0.021251
      dyz     :     0.012044
      dx2y2   :     0.019165
      dxy     :     0.016983
 51 C s       :     2.899576  s :     2.899576
      pz      :     0.974862  p :     3.020154
      px      :     1.072297
      py      :     0.972995
      dz2     :     0.024285  d :     0.122175
      dxz     :     0.036117
      dyz     :     0.020542
      dx2y2   :     0.017713
      dxy     :     0.023518
 52 N s       :     3.155525  s :     3.155525
      pz      :     1.205289  p :     3.802080
      px      :     1.397478
      py      :     1.199312
      dz2     :     0.020350  d :     0.092677
      dxz     :     0.023458
      dyz     :     0.016513
      dx2y2   :     0.012873
      dxy     :     0.019484
 53 H s       :     0.837744  s :     0.837744
 54 H s       :     0.831295  s :     0.831295
 55 H s       :     0.830253  s :     0.830253
 56 H s       :     0.838433  s :     0.838433
 57 H s       :     0.838446  s :     0.838446
 58 H s       :     0.830252  s :     0.830252
 59 H s       :     0.831279  s :     0.831279
 60 H s       :     0.837789  s :     0.837789


                      *****************************
                      * MAYER POPULATION ANALYSIS *
                      *****************************

  NA   - Mulliken gross atomic population
  ZA   - Total nuclear charge
  QA   - Mulliken gross atomic charge
  VA   - Mayer's total valence
  BVA  - Mayer's bonded valence
  FA   - Mayer's free valence

  ATOM       NA         ZA         QA         VA         BVA        FA
  0 Fe    24.9734    26.0000     1.0266     3.5381     3.5381     0.0000
  1 N      7.5323     7.0000    -0.5323     3.1272     3.1272     0.0000
  2 C      5.9775     6.0000     0.0225     3.8679     3.8679    -0.0000
  3 C      6.1205     6.0000    -0.1205     3.9045     3.9045     0.0000
  4 C      6.1042     6.0000    -0.1042     3.9158     3.9158    -0.0000
  5 C      6.1548     6.0000    -0.1548     3.8860     3.8860     0.0000
  6 C      5.7355     6.0000     0.2645     3.8518     3.8518     0.0000
  7 C      5.7366     6.0000     0.2634     3.8526     3.8526     0.0000
  8 C      6.1546     6.0000    -0.1546     3.8859     3.8859    -0.0000
  9 C      6.1044     6.0000    -0.1044     3.9160     3.9160     0.0000
 10 C      6.1201     6.0000    -0.1201     3.9043     3.9043     0.0000
 11 C      5.9773     6.0000     0.0227     3.8679     3.8679    -0.0000
 12 N      7.5320     7.0000    -0.5320     3.1281     3.1281     0.0000
 13 H      0.8114     1.0000     0.1886     0.9280     0.9280    -0.0000
 14 H      0.8006     1.0000     0.1994     0.9244     0.9244    -0.0000
 15 H      0.7922     1.0000     0.2078     0.9194     0.9194     0.0000
 16 H      0.8088     1.0000     0.1912     0.9267     0.9267    -0.0000
 17 H      0.8088     1.0000     0.1912     0.9266     0.9266    -0.0000
 18 H      0.7922     1.0000     0.2078     0.9194     0.9194    -0.0000
 19 H      0.8006     1.0000     0.1994     0.9244     0.9244     0.0000
 20 H      0.8114     1.0000     0.1886     0.9281     0.9281    -0.0000
 21 N      7.5325     7.0000    -0.5325     3.1276     3.1276     0.0000
 22 C      5.9774     6.0000     0.0226     3.8678     3.8678     0.0000
 23 C      6.1201     6.0000    -0.1201     3.9041     3.9041     0.0000
 24 C      6.1045     6.0000    -0.1045     3.9159     3.9159    -0.0000
 25 C      6.1545     6.0000    -0.1545     3.8859     3.8859    -0.0000
 26 C      5.7359     6.0000     0.2641     3.8519     3.8519     0.0000
 27 C      5.7361     6.0000     0.2639     3.8527     3.8527     0.0000
 28 C      6.1549     6.0000    -0.1549     3.8859     3.8859    -0.0000
 29 C      6.1043     6.0000    -0.1043     3.9160     3.9160    -0.0000
 30 C      6.1204     6.0000    -0.1204     3.9045     3.9045    -0.0000
 31 C      5.9772     6.0000     0.0228     3.8680     3.8680    -0.0000
 32 N      7.5320     7.0000    -0.5320     3.1269     3.1269     0.0000
 33 H      0.8114     1.0000     0.1886     0.9281     0.9281    -0.0000
 34 H      0.8006     1.0000     0.1994     0.9244     0.9244     0.0000
 35 H      0.7922     1.0000     0.2078     0.9194     0.9194    -0.0000
 36 H      0.8086     1.0000     0.1914     0.9266     0.9266    -0.0000
 37 H      0.8088     1.0000     0.1912     0.9267     0.9267    -0.0000
 38 H      0.7922     1.0000     0.2078     0.9194     0.9194    -0.0000
 39 H      0.8006     1.0000     0.1994     0.9244     0.9244    -0.0000
 40 H      0.8112     1.0000     0.1888     0.9279     0.9279    -0.0000
 41 N      7.5321     7.0000    -0.5321     3.1267     3.1267     0.0000
 42 C      5.9775     6.0000     0.0225     3.8679     3.8679     0.0000
 43 C      6.1204     6.0000    -0.1204     3.9044     3.9044    -0.0000
 44 C      6.1044     6.0000    -0.1044     3.9159     3.9159    -0.0000
 45 C      6.1547     6.0000    -0.1547     3.8858     3.8858     0.0000
 46 C      5.7356     6.0000     0.2644     3.8522     3.8522    -0.0000
 47 C      5.7356     6.0000     0.2644     3.8523     3.8523    -0.0000
 48 C      6.1548     6.0000    -0.1548     3.8857     3.8857    -0.0000
 49 C      6.1045     6.0000    -0.1045     3.9160     3.9160    -0.0000
 50 C      6.1202     6.0000    -0.1202     3.9042     3.9042    -0.0000
 51 C      5.9776     6.0000     0.0224     3.8680     3.8680     0.0000
 52 N      7.5324     7.0000    -0.5324     3.1271     3.1271     0.0000
 53 H      0.8114     1.0000     0.1886     0.9280     0.9280     0.0000
 54 H      0.8006     1.0000     0.1994     0.9244     0.9244    -0.0000
 55 H      0.7922     1.0000     0.2078     0.9194     0.9194    -0.0000
 56 H      0.8087     1.0000     0.1913     0.9266     0.9266    -0.0000
 57 H      0.8087     1.0000     0.1913     0.9266     0.9266     0.0000
 58 H      0.7921     1.0000     0.2079     0.9194     0.9194     0.0000
 59 H      0.8006     1.0000     0.1994     0.9244     0.9244    -0.0000
 60 H      0.8114     1.0000     0.1886     0.9281     0.9281    -0.0000

  Mayer bond orders larger than 0.100000
B(  0-Fe,  1-N ) :   0.4890 B(  0-Fe, 12-N ) :   0.4904 B(  0-Fe, 21-N ) :   0.4899 
B(  0-Fe, 32-N ) :   0.4885 B(  0-Fe, 41-N ) :   0.4888 B(  0-Fe, 52-N ) :   0.4891 
B(  1-N ,  2-C ) :   1.3241 B(  1-N ,  6-C ) :   1.1715 B(  2-C ,  3-C ) :   1.4374 
B(  2-C , 20-H ) :   0.9058 B(  3-C ,  4-C ) :   1.4279 B(  3-C , 19-H ) :   0.9141 
B(  4-C ,  5-C ) :   1.4229 B(  4-C , 18-H ) :   0.9110 B(  5-C ,  6-C ) :   1.4257 
B(  5-C , 17-H ) :   0.9049 B(  6-C ,  7-C ) :   1.0588 B(  7-C ,  8-C ) :   1.4257 
B(  7-C , 12-N ) :   1.1714 B(  8-C ,  9-C ) :   1.4229 B(  8-C , 16-H ) :   0.9048 
B(  9-C , 10-C ) :   1.4277 B(  9-C , 15-H ) :   0.9110 B( 10-C , 11-C ) :   1.4375 
B( 10-C , 14-H ) :   0.9141 B( 11-C , 12-N ) :   1.3237 B( 11-C , 13-H ) :   0.9057 
B( 21-N , 22-C ) :   1.3238 B( 21-N , 26-C ) :   1.1712 B( 22-C , 23-C ) :   1.4374 
B( 22-C , 40-H ) :   0.9057 B( 23-C , 24-C ) :   1.4277 B( 23-C , 39-H ) :   0.9141 
B( 24-C , 25-C ) :   1.4230 B( 24-C , 38-H ) :   0.9110 B( 25-C , 26-C ) :   1.4255 
B( 25-C , 37-H ) :   0.9049 B( 26-C , 27-C ) :   1.0588 B( 27-C , 28-C ) :   1.4257 
B( 27-C , 32-N ) :   1.1717 B( 28-C , 29-C ) :   1.4228 B( 28-C , 36-H ) :   0.9048 
B( 29-C , 30-C ) :   1.4280 B( 29-C , 35-H ) :   0.9110 B( 30-C , 31-C ) :   1.4374 
B( 30-C , 34-H ) :   0.9141 B( 31-C , 32-N ) :   1.3243 B( 31-C , 33-H ) :   0.9056 
B( 41-N , 42-C ) :   1.3240 B( 41-N , 46-C ) :   1.1714 B( 42-C , 43-C ) :   1.4374 
B( 42-C , 60-H ) :   0.9056 B( 43-C , 44-C ) :   1.4279 B( 43-C , 59-H ) :   0.9141 
B( 44-C , 45-C ) :   1.4229 B( 44-C , 58-H ) :   0.9110 B( 45-C , 46-C ) :   1.4256 
B( 45-C , 57-H ) :   0.9048 B( 46-C , 47-C ) :   1.0590 B( 47-C , 48-C ) :   1.4254 
B( 47-C , 52-N ) :   1.1717 B( 48-C , 49-C ) :   1.4229 B( 48-C , 56-H ) :   0.9048 
B( 49-C , 50-C ) :   1.4278 B( 49-C , 55-H ) :   0.9110 B( 50-C , 51-C ) :   1.4373 
B( 50-C , 54-H ) :   0.9141 B( 51-C , 52-N ) :   1.3238 B( 51-C , 53-H ) :   0.9057 


-------
TIMINGS
-------

Total SCF time: 0 days 0 hours 1 min 18 sec 

Total time                  ....      78.695 sec
Sum of individual times     ....      72.237 sec  ( 91.8%)

Fock matrix formation       ....      60.140 sec  ( 76.4%)
  Split-RI-J                ....       4.216 sec  (  7.0% of F)
  Chain of spheres X        ....      24.445 sec  ( 40.6% of F)
  XC integration            ....      27.252 sec  ( 45.3% of F)
    Basis function eval.    ....       0.545 sec  (  2.0% of XC)
    Density eval.           ....       0.609 sec  (  2.2% of XC)
    XC-Functional eval.     ....       0.083 sec  (  0.3% of XC)
    XC-Potential eval.      ....       0.148 sec  (  0.5% of XC)
Diagonalization             ....       2.146 sec  (  2.7%)
Density matrix formation    ....       0.049 sec  (  0.1%)
Population analysis         ....       0.318 sec  (  0.4%)
Initial guess               ....       0.197 sec  (  0.3%)
Orbital Transformation      ....       0.000 sec  (  0.0%)
Orbital Orthonormalization  ....       0.168 sec  (  0.2%)
DIIS solution               ....       1.652 sec  (  2.1%)
Grid generation             ....       7.735 sec  (  9.8%)

Maximum memory used throughout the entire SCF-calculation: 154.2 MB

-------------------------   --------------------
FINAL SINGLE POINT ENERGY     -2748.436912973997
-------------------------   --------------------

                                *** OPTIMIZATION RUN DONE ***

                            ***************************************
                            *     ORCA property calculations      *
                            ***************************************

                                    ---------------------
                                    Active property flags
                                    ---------------------
   (+) Dipole Moment


------------------------------------------------------------------------------
                       ORCA ELECTRIC PROPERTIES CALCULATION
------------------------------------------------------------------------------

Dipole Moment Calculation                       ... on
Quadrupole Moment Calculation                   ... off
Polarizability Calculation                      ... off
GBWName                                         ... Fe_plus2_small_opt.orca.gbw
Electron density                                ... Fe_plus2_small_opt.orca.scfp
The origin for moment calculation is the CENTER OF MASS  = (-0.002097,  0.000761  0.000180)

-------------
DIPOLE MOMENT
-------------
                                X             Y             Z
Electronic contribution:     -0.02468       0.02153       0.00396
Nuclear contribution   :      0.02967      -0.02486      -0.00430
                        -----------------------------------------
Total Dipole Moment    :      0.00498      -0.00333      -0.00034
                        -----------------------------------------
Magnitude (a.u.)       :      0.00600
Magnitude (Debye)      :      0.01525



--------------------
Rotational spectrum 
--------------------
 
Rotational constants in cm-1:     0.004201     0.004190     0.003514 
Rotational constants in MHz :   125.943286   125.626627   105.341490 

 Dipole components along the rotational axes: 
x,y,z [a.u.] :    -0.000162    -0.005843    -0.001354 
x,y,z [Debye]:    -0.000411    -0.014852    -0.003441 

 

Timings for individual modules:

Sum of individual times         ...     1096.742 sec (=  18.279 min)
GTO integral calculation        ...       48.615 sec (=   0.810 min)   4.4 %
SCF iterations                  ...      935.141 sec (=  15.586 min)  85.3 %
SCF Gradient evaluation         ...      109.089 sec (=   1.818 min)   9.9 %
Geometry relaxation             ...        3.896 sec (=   0.065 min)   0.4 %
                             ****ORCA TERMINATED NORMALLY****
TOTAL RUN TIME: 0 days 0 hours 18 minutes 56 seconds 342 msec
