
                                 *****************
                                 * O   R   C   A *
                                 *****************

                                            #,                                       
                                            ###                                      
                                            ####                                     
                                            #####                                    
                                            ######                                   
                                           ########,                                 
                                     ,,################,,,,,                         
                               ,,#################################,,                 
                          ,,##########################################,,             
                       ,#########################################, ''#####,          
                    ,#############################################,,   '####,        
                  ,##################################################,,,,####,       
                ,###########''''           ''''###############################       
              ,#####''   ,,,,##########,,,,          '''####'''          '####       
            ,##' ,,,,###########################,,,                        '##       
           ' ,,###''''                  '''############,,,                           
         ,,##''                                '''############,,,,        ,,,,,,###''
      ,#''                                            '''#######################'''  
     '                                                          ''''####''''         
             ,#######,   #######,   ,#######,      ##                                
            ,#'     '#,  ##    ##  ,#'     '#,    #''#        ######   ,####,        
            ##       ##  ##   ,#'  ##            #'  '#       #        #'  '#        
            ##       ##  #######   ##           ,######,      #####,   #    #        
            '#,     ,#'  ##    ##  '#,     ,#' ,#      #,         ##   #,  ,#        
             '#######'   ##     ##  '#######'  #'      '#     #####' # '####'        



                  #######################################################
                  #                        -***-                        #
                  #          Department of theory and spectroscopy      #
                  #    Directorship and core code : Frank Neese         #
                  #        Max Planck Institute fuer Kohlenforschung    #
                  #                Kaiser Wilhelm Platz 1               #
                  #                 D-45470 Muelheim/Ruhr               #
                  #                      Germany                        #
                  #                                                     #
                  #                  All rights reserved                #
                  #                        -***-                        #
                  #######################################################


                         Program Version 5.0.2 -  RELEASE  -


 With contributions from (in alphabetic order):
   Daniel Aravena         : Magnetic Suceptibility
   Michael Atanasov       : Ab Initio Ligand Field Theory (pilot matlab implementation)
   Alexander A. Auer      : GIAO ZORA, VPT2 properties, NMR spectrum
   Ute Becker             : Parallelization
   Giovanni Bistoni       : ED, misc. LED, open-shell LED, HFLD
   Martin Brehm           : Molecular dynamics
   Dmytro Bykov           : SCF Hessian
   Vijay G. Chilkuri      : MRCI spin determinant printing, contributions to CSF-ICE
   Dipayan Datta          : RHF DLPNO-CCSD density
   Achintya Kumar Dutta   : EOM-CC, STEOM-CC
   Dmitry Ganyushin       : Spin-Orbit,Spin-Spin,Magnetic field MRCI
   Miquel Garcia          : C-PCM and meta-GGA Hessian, CC/C-PCM, Gaussian charge scheme
   Yang Guo               : DLPNO-NEVPT2, F12-NEVPT2, CIM, IAO-localization
   Andreas Hansen         : Spin unrestricted coupled pair/coupled cluster methods
   Benjamin Helmich-Paris : MC-RPA, TRAH-SCF, COSX integrals
   Lee Huntington         : MR-EOM, pCC
   Robert Izsak           : Overlap fitted RIJCOSX, COSX-SCS-MP3, EOM
   Marcus Kettner         : VPT2
   Christian Kollmar      : KDIIS, OOCD, Brueckner-CCSD(T), CCSD density, CASPT2, CASPT2-K
   Simone Kossmann        : Meta GGA functionals, TD-DFT gradient, OOMP2, MP2 Hessian
   Martin Krupicka        : Initial AUTO-CI
   Lucas Lang             : DCDCAS
   Marvin Lechner         : AUTO-CI (C++ implementation), FIC-MRCC
   Dagmar Lenk            : GEPOL surface, SMD
   Dimitrios Liakos       : Extrapolation schemes; Compound Job, initial MDCI parallelization
   Dimitrios Manganas     : Further ROCIS development; embedding schemes
   Dimitrios Pantazis     : SARC Basis sets
   Anastasios Papadopoulos: AUTO-CI, single reference methods and gradients
   Taras Petrenko         : DFT Hessian,TD-DFT gradient, ASA, ECA, R-Raman, ABS, FL, XAS/XES, NRVS
   Peter Pinski           : DLPNO-MP2, DLPNO-MP2 Gradient
   Christoph Reimann      : Effective Core Potentials
   Marius Retegan         : Local ZFS, SOC
   Christoph Riplinger    : Optimizer, TS searches, QM/MM, DLPNO-CCSD(T), (RO)-DLPNO pert. Triples
   Tobias Risthaus        : Range-separated hybrids, TD-DFT gradient, RPA, STAB
   Michael Roemelt        : Original ROCIS implementation
   Masaaki Saitow         : Open-shell DLPNO-CCSD energy and density
   Barbara Sandhoefer     : DKH picture change effects
   Avijit Sen             : IP-ROCIS
   Kantharuban Sivalingam : CASSCF convergence, NEVPT2, FIC-MRCI
   Bernardo de Souza      : ESD, SOC TD-DFT
   Georgi Stoychev        : AutoAux, RI-MP2 NMR, DLPNO-MP2 response
   Willem Van den Heuvel  : Paramagnetic NMR
   Boris Wezisla          : Elementary symmetry handling
   Frank Wennmohs         : Technical directorship


 We gratefully acknowledge several colleagues who have allowed us to
 interface, adapt or use parts of their codes:
   Stefan Grimme, W. Hujo, H. Kruse, P. Pracht,  : VdW corrections, initial TS optimization,
                  C. Bannwarth, S. Ehlert          DFT functionals, gCP, sTDA/sTD-DF
   Ed Valeev, F. Pavosevic, A. Kumar             : LibInt (2-el integral package), F12 methods
   Garnet Chan, S. Sharma, J. Yang, R. Olivares  : DMRG
   Ulf Ekstrom                                   : XCFun DFT Library
   Mihaly Kallay                                 : mrcc  (arbitrary order and MRCC methods)
   Jiri Pittner, Ondrej Demel                    : Mk-CCSD
   Frank Weinhold                                : gennbo (NPA and NBO analysis)
   Christopher J. Cramer and Donald G. Truhlar   : smd solvation model
   Lars Goerigk                                  : TD-DFT with DH, B97 family of functionals
   V. Asgeirsson, H. Jonsson                     : NEB implementation
   FAccTs GmbH                                   : IRC, NEB, NEB-TS, DLPNO-Multilevel, CI-OPT
                                                   MM, QMMM, 2- and 3-layer-ONIOM, Crystal-QMMM,
                                                   LR-CPCM, SF, NACMEs, symmetry and pop. for TD-DFT,
                                                   nearIR, NL-DFT gradient (VV10), updates on ESD,
                                                   ML-optimized integration grids
   S Lehtola, MJT Oliveira, MAL Marques          : LibXC Library
   Liviu Ungur et al                             : ANISO software


 Your calculation uses the libint2 library for the computation of 2-el integrals
 For citations please refer to: http://libint.valeyev.net

 Your ORCA version has been built with support for libXC version: 5.1.0
 For citations please refer to: https://tddft.org/programs/libxc/

 This ORCA versions uses:
   CBLAS   interface :  Fast vector & matrix operations
   LAPACKE interface :  Fast linear algebra routines
   SCALAPACK package :  Parallel linear algebra routines
   Shared memory     :  Shared parallel matrices
   BLAS/LAPACK       :  OpenBLAS 0.3.15  USE64BITINT DYNAMIC_ARCH NO_AFFINITY Prescott SINGLE_THREADED
        Core in use  :  Prescott
   Copyright (c) 2011-2014, The OpenBLAS Project


================================================================================

cite the ECPs for Pb [Def2-ECP] as follows:
Ce-Yb(ecp-28): M. Dolg, H. Stoll, H.Preuss, J. Chem. Phys., 1989, 90, 1730-1734.
Y-Cd(ecp-28), Hf-Hg(ecp-46): D. Andrae,U. Haeussermann, M. Dolg, H. Stoll, H. Preuss, Theor. Chim. Acta, 1990, 77, 123-141.
In-Sb(ecp-28), Tl-Bi(ecp-46): B. Metz, H. Stoll, M. Dolg, J. Chem. Phys., 2000, 113, 2563-2569.
Te-Xe(ecp-28), Po-Rn(ecp-46): K. A. Peterson, D. Figgen, E. Goll, H. Stoll, M. Dolg, J. Chem. Phys., 2003, 119, 11113-11123.
Rb(ecp-28), Cs(ecp-46): T. Leininger, A. Nicklass, W. Kuechle, H. Stoll, M. Dolg, A. Bergner, Chem. Phys. Lett., 1996, 255, 274-280.
Sr(ecp-28), Ba(ecp-46): M. Kaupp, P. V. Schleyer, H. Stoll and H. Preuss, J. Chem. Phys., 1991, 94, 1360-1366.
La(ecp-46): M. Dolg, H. Stoll, A. Savin, H. Preuss, Theor. Chim. Acta, 1989, 75, 173-194.
Lu(ecp-28): X. Cao, M. Dolg, J. Chem. Phys., 2001, 115, 7348-7355.

ECP parameters for Pb [Def2-ECP] have been obtained from:
TURBOMOLE (7.0.2)

----- Orbital basis set information -----
Your calculation utilizes the basis: def2-TZVP
   F. Weigend and R. Ahlrichs, Phys. Chem. Chem. Phys. 7, 3297 (2005).

----- AuxJ basis set information -----
Your calculation utilizes the auxiliary basis: def2/J
   F. Weigend, Phys. Chem. Chem. Phys. 8, 1057 (2006).

================================================================================
                                        WARNINGS
                       Please study these warnings very carefully!
================================================================================


INFO   : the flag for use of the SHARK integral package has been found!

================================================================================
                                       INPUT FILE
================================================================================
NAME = Pb_complex_large_mk.orca
|  1> ! B3LYP DEF2-TZVP keepdens
|  2> 
|  3> %pal
|  4> nprocs 32
|  5> end
|  6> 
|  7> %maxcore 4000
|  8> 
|  9> * xyz 2 1
| 10> Pb  -1.663425  0.329389  -1.440093
| 11> N  -1.412485  3.086385  -0.607268
| 12> N  -1.854400  -2.441752  -2.554650
| 13> C  -0.999783  3.103691  0.809696
| 14> C  0.206118  2.232803  1.091997
| 15> H  -1.824765  2.737342  1.419679
| 16> H  -0.779318  4.124546  1.149443
| 17> O  -0.108510  0.868493  0.777850
| 18> H  0.457932  2.311107  2.154019
| 19> H  1.086023  2.545226  0.518876
| 20> C  0.965965  -0.030959  1.083237
| 21> C  0.491051  -1.450427  0.919989
| 22> H  1.290354  0.116566  2.118077
| 23> H  1.815013  0.171760  0.421611
| 24> O  0.006317  -1.636032  -0.417752
| 25> H  -0.304007  -1.683317  1.636359
| 26> H  1.333027  -2.123472  1.107582
| 27> C  -0.120160  -3.016435  -0.783088
| 28> C  -0.584730  -3.126819  -2.220735
| 29> H  -0.784013  -3.528975  -0.081883
| 30> H  0.859445  -3.499792  -0.710185
| 31> H  -0.638130  -4.196235  -2.469904
| 32> H  0.191580  -2.691423  -2.850874
| 33> C  -3.047135  -3.086936  -1.964135
| 34> C  -3.411536  -2.617666  -0.561620
| 35> H  -2.930304  -4.179415  -1.939017
| 36> H  -3.897135  -2.888940  -2.618141
| 37> O  -3.583375  -1.192002  -0.476014
| 38> H  -2.646876  -2.859475  0.171107
| 39> H  -4.333154  -3.113387  -0.246419
| 40> C  -4.899484  -0.689093  -0.751400
| 41> C  -4.981755  0.701031  -0.178618
| 42> H  -5.649014  -1.320415  -0.267421
| 43> H  -5.092223  -0.683846  -1.828997
| 44> O  -3.917335  1.494454  -0.729521
| 45> H  -4.882017  0.670022  0.910591
| 46> H  -5.946294  1.150097  -0.433267
| 47> C  -3.898744  2.826606  -0.183303
| 48> C  -2.778146  3.632439  -0.798922
| 49> H  -3.825546  2.760116  0.905829
| 50> H  -4.845271  3.320973  -0.421109
| 51> H  -2.849042  4.651739  -0.393828
| 52> H  -2.949268  3.700575  -1.872512
| 53> C  -0.469822  3.847801  -1.473512
| 54> C  -0.013297  3.071653  -2.702065
| 55> H  0.416613  4.133814  -0.906346
| 56> H  -0.943795  4.780054  -1.789232
| 57> O  -1.140863  2.380017  -3.247799
| 58> H  0.772352  2.346166  -2.453297
| 59> H  0.402215  3.765203  -3.438018
| 60> C  -1.018870  2.008409  -4.624198
| 61> C  -2.197739  1.130096  -4.962997
| 62> H  -0.081010  1.465862  -4.786212
| 63> H  -1.021809  2.901398  -5.256714
| 64> O  -2.169654  0.007274  -4.068516
| 65> H  -2.107482  0.788855  -5.997286
| 66> H  -3.141086  1.673155  -4.853313
| 67> C  -2.814391  -1.196835  -4.510502
| 68> C  -1.991998  -2.375617  -4.030758
| 69> H  -3.845310  -1.217409  -4.143144
| 70> H  -2.854284  -1.218622  -5.602038
| 71> H  -2.422685  -3.302146  -4.431762
| 72> H  -0.996529  -2.277677  -4.462560
| 73> **                         ****END OF INPUT****
================================================================================

                       ****************************
                       * Single Point Calculation *
                       ****************************

---------------------------------
CARTESIAN COORDINATES (ANGSTROEM)
---------------------------------
  Pb    -1.663425    0.329389   -1.440093
  N     -1.412485    3.086385   -0.607268
  N     -1.854400   -2.441752   -2.554650
  C     -0.999783    3.103691    0.809696
  C      0.206118    2.232803    1.091997
  H     -1.824765    2.737342    1.419679
  H     -0.779318    4.124546    1.149443
  O     -0.108510    0.868493    0.777850
  H      0.457932    2.311107    2.154019
  H      1.086023    2.545226    0.518876
  C      0.965965   -0.030959    1.083237
  C      0.491051   -1.450427    0.919989
  H      1.290354    0.116566    2.118077
  H      1.815013    0.171760    0.421611
  O      0.006317   -1.636032   -0.417752
  H     -0.304007   -1.683317    1.636359
  H      1.333027   -2.123472    1.107582
  C     -0.120160   -3.016435   -0.783088
  C     -0.584730   -3.126819   -2.220735
  H     -0.784013   -3.528975   -0.081883
  H      0.859445   -3.499792   -0.710185
  H     -0.638130   -4.196235   -2.469904
  H      0.191580   -2.691423   -2.850874
  C     -3.047135   -3.086936   -1.964135
  C     -3.411536   -2.617666   -0.561620
  H     -2.930304   -4.179415   -1.939017
  H     -3.897135   -2.888940   -2.618141
  O     -3.583375   -1.192002   -0.476014
  H     -2.646876   -2.859475    0.171107
  H     -4.333154   -3.113387   -0.246419
  C     -4.899484   -0.689093   -0.751400
  C     -4.981755    0.701031   -0.178618
  H     -5.649014   -1.320415   -0.267421
  H     -5.092223   -0.683846   -1.828997
  O     -3.917335    1.494454   -0.729521
  H     -4.882017    0.670022    0.910591
  H     -5.946294    1.150097   -0.433267
  C     -3.898744    2.826606   -0.183303
  C     -2.778146    3.632439   -0.798922
  H     -3.825546    2.760116    0.905829
  H     -4.845271    3.320973   -0.421109
  H     -2.849042    4.651739   -0.393828
  H     -2.949268    3.700575   -1.872512
  C     -0.469822    3.847801   -1.473512
  C     -0.013297    3.071653   -2.702065
  H      0.416613    4.133814   -0.906346
  H     -0.943795    4.780054   -1.789232
  O     -1.140863    2.380017   -3.247799
  H      0.772352    2.346166   -2.453297
  H      0.402215    3.765203   -3.438018
  C     -1.018870    2.008409   -4.624198
  C     -2.197739    1.130096   -4.962997
  H     -0.081010    1.465862   -4.786212
  H     -1.021809    2.901398   -5.256714
  O     -2.169654    0.007274   -4.068516
  H     -2.107482    0.788855   -5.997286
  H     -3.141086    1.673155   -4.853313
  C     -2.814391   -1.196835   -4.510502
  C     -1.991998   -2.375617   -4.030758
  H     -3.845310   -1.217409   -4.143144
  H     -2.854284   -1.218622   -5.602038
  H     -2.422685   -3.302146   -4.431762
  H     -0.996529   -2.277677   -4.462560

----------------------------
CARTESIAN COORDINATES (A.U.)
----------------------------
  NO LB      ZA    FRAG     MASS         X           Y           Z
   0 Pb   22.0000*   0   207.200   -3.143418    0.622455   -2.721381
   1 N     7.0000    0    14.007   -2.669210    5.832422   -1.147570
   2 N     7.0000    0    14.007   -3.504308   -4.614243   -4.827589
   3 C     6.0000    0    12.011   -1.889316    5.865126    1.530104
   4 C     6.0000    0    12.011    0.389507    4.219386    2.063575
   5 H     1.0000    0     1.008   -3.448306    5.172827    2.682805
   6 H     1.0000    0     1.008   -1.472698    7.794262    2.172132
   7 O     8.0000    0    15.999   -0.205054    1.641214    1.469923
   8 H     1.0000    0     1.008    0.865366    4.367359    4.070506
   9 H     1.0000    0     1.008    2.052286    4.809780    0.980534
  10 C     6.0000    0    12.011    1.825409   -0.058504    2.047021
  11 C     6.0000    0    12.011    0.927952   -2.740910    1.738527
  12 H     1.0000    0     1.008    2.438416    0.220278    4.002585
  13 H     1.0000    0     1.008    3.429877    0.324579    0.796729
  14 O     8.0000    0    15.999    0.011937   -3.091652   -0.789437
  15 H     1.0000    0     1.008   -0.574490   -3.181008    3.092270
  16 H     1.0000    0     1.008    2.519056   -4.012781    2.093027
  17 C     6.0000    0    12.011   -0.227069   -5.700236   -1.479822
  18 C     6.0000    0    12.011   -1.104980   -5.908832   -4.196581
  19 H     1.0000    0     1.008   -1.481570   -6.668796   -0.154736
  20 H     1.0000    0     1.008    1.624116   -6.613648   -1.342055
  21 H     1.0000    0     1.008   -1.205891   -7.929735   -4.667442
  22 H     1.0000    0     1.008    0.362034   -5.086052   -5.387371
  23 C     6.0000    0    12.011   -5.758251   -5.833464   -3.711677
  24 C     6.0000    0    12.011   -6.446869   -4.946672   -1.061308
  25 H     1.0000    0     1.008   -5.537472   -7.897950   -3.664211
  26 H     1.0000    0     1.008   -7.364518   -5.459305   -4.947569
  27 O     8.0000    0    15.999   -6.771597   -2.252557   -0.899536
  28 H     1.0000    0     1.008   -5.001871   -5.403625    0.323345
  29 H     1.0000    0     1.008   -8.188474   -5.883449   -0.465664
  30 C     6.0000    0    12.011   -9.258683   -1.302197   -1.419940
  31 C     6.0000    0    12.011   -9.414153    1.324757   -0.337539
  32 H     1.0000    0     1.008  -10.675089   -2.495223   -0.505352
  33 H     1.0000    0     1.008   -9.622907   -1.292282   -3.456303
  34 O     8.0000    0    15.999   -7.402690    2.824109   -1.378595
  35 H     1.0000    0     1.008   -9.225675    1.266158    1.720768
  36 H     1.0000    0     1.008  -11.236867    2.173368   -0.818756
  37 C     6.0000    0    12.011   -7.367558    5.341511   -0.346392
  38 C     6.0000    0    12.011   -5.249935    6.864315   -1.509744
  39 H     1.0000    0     1.008   -7.229234    5.215863    1.711769
  40 H     1.0000    0     1.008   -9.156235    6.275729   -0.795781
  41 H     1.0000    0     1.008   -5.383909    8.790513   -0.744227
  42 H     1.0000    0     1.008   -5.573309    6.993073   -3.538535
  43 C     6.0000    0    12.011   -0.887835    7.271290   -2.784534
  44 C     6.0000    0    12.011   -0.025128    5.804583   -5.106163
  45 H     1.0000    0     1.008    0.787284    7.811776   -1.712746
  46 H     1.0000    0     1.008   -1.783514    9.032993   -3.381158
  47 O     8.0000    0    15.999   -2.155919    4.497580   -6.137451
  48 H     1.0000    0     1.008    1.459534    4.433611   -4.636059
  49 H     1.0000    0     1.008    0.760076    7.115203   -6.496912
  50 C     6.0000    0    12.011   -1.925385    3.795343   -8.738468
  51 C     6.0000    0    12.011   -4.153125    2.135572   -9.378705
  52 H     1.0000    0     1.008   -0.153087    2.770078   -9.044630
  53 H     1.0000    0     1.008   -1.930939    5.482848   -9.933750
  54 O     8.0000    0    15.999   -4.100052    0.013746   -7.688381
  55 H     1.0000    0     1.008   -3.982564    1.490720  -11.333228
  56 H     1.0000    0     1.008   -5.935792    3.161805   -9.171432
  57 C     6.0000    0    12.011   -5.318428   -2.261690   -8.523614
  58 C     6.0000    0    12.011   -3.764331   -4.489266   -7.617029
  59 H     1.0000    0     1.008   -7.266583   -2.300570   -7.829407
  60 H     1.0000    0     1.008   -5.393815   -2.302862  -10.586318
  61 H     1.0000    0     1.008   -4.578211   -6.240152   -8.374816
  62 H     1.0000    0     1.008   -1.883167   -4.304186   -8.433016
* core charge reduced due to ECP

--------------------------------
INTERNAL COORDINATES (ANGSTROEM)
--------------------------------
 Pb     0   0   0     0.000000000000     0.00000000     0.00000000
 N      1   0   0     2.890950589035     0.00000000     0.00000000
 N      1   2   0     2.992980320476   174.74412265     0.00000000
 C      2   1   3     1.475943567937   108.18110881   209.83213077
 C      4   2   1     1.514046559702   113.26404400    51.02925528
 H      4   2   1     1.089443045971   108.77451867   291.21754638
 H      4   2   1     1.098261249093   111.34714916   173.61884979
 O      5   4   2     1.434928880500   109.35612520   298.49710055
 H      5   4   2     1.094272605659   108.84952076   179.11663381
 H      5   4   2     1.095585971339   112.21678810    60.12473244
 C      8   5   4     1.434144917956   112.66923651   182.94083220
 C     11   8   5     1.505683439480   109.38166234   171.70103010
 H     11   8   5     1.094479636424   109.80719654    52.31322727
 H     11   8   5     1.095320255971   109.63676448   293.26044137
 O     12  11   8     1.434910188779   109.24290640    57.39849995
 H     12  11   8     1.095235569348   111.00898366   296.30201010
 H     12  11   8     1.094122612073   108.57876044   177.23452666
 C     15  12  11     1.433519887143   113.07625368   163.79849279
 C      3   1   8     1.480836902098   106.83717079   331.82645675
 H     18  15  12     1.093200123140   109.97317340    57.38114443
 H     18  15  12     1.094794406673   109.22201356   300.14787736
 H     19   3   1     1.099357690480   110.93245559   171.73631415
 H     19   3   1     1.090551260710   107.17852885   288.18942347
 C      3   1   8     1.479049403944   107.85811289    94.24676714
 C     24   3   1     1.523171279576   115.22416054   329.71711942
 H     24   3   1     1.098995342086   110.91765014   206.50953432
 H     24   3   1     1.090608208319   108.05291242    90.62802840
 O     25  24   3     1.438532192915   112.87393910    55.01730499
 H     25  24   3     1.086308135204   112.58785451   295.90700432
 H     25  24   3     1.092918440766   109.12059398   176.83398026
 C     28  25  24     1.435582742707   116.44129922    88.43996487
 C     31  28  25     1.505753124633   107.48976420   161.59006778
 H     31  28  25     1.092976834624   109.96250295    42.93008696
 H     31  28  25     1.094710531391   110.60481194   283.06779304
 O     32  31  28     1.437360117973   108.86588248    55.65471738
 H     32  31  28     1.094205406862   110.33541803   295.77494006
 H     32  31  28     1.094002681934   109.79077197   175.75837875
 C     35  32  31     1.439905788553   112.01570814   182.40568690
 C      2   1  28     1.483218188114   103.52972074   309.33630825
 H     38  35  32     1.093612079637   108.80838988    56.32848360
 H     38  35  32     1.094012699220   108.93160852   299.33122928
 H     39   2   1     1.099135970502   110.68194853   172.76145174
 H     39   2   1     1.089275328592   107.15926939   289.29333075
 C      2   1  28     1.489545744232   112.01737888   192.48873922
 C     44   2   1     1.523208215359   113.46936300     8.24960580
 H     44   2   1     1.090526348581   110.24441737   246.93399683
 H     44   2   1     1.092440011689   109.25151040   130.57644418
 O     45  44   2     1.430940613585   108.52520551    41.58964656
 H     45  44   2     1.097934996343   111.61781886   281.04770928
 H     45  44   2     1.093292569651   109.48754679   162.21551537
 C     48  45  44     1.430890982889   115.16346349   158.52633273
 C     51  48  45     1.508625403316   107.49359462   172.06992208
 H     51  48  45     1.095530539513   110.11196335    51.84903364
 H     51  48  45     1.094310048431   110.11085023   291.97697661
 O     52  51  48     1.435832257010   107.46291170   302.19171867
 H     52  51  48     1.092861144726   109.25605078   182.74231945
 H     52  51  48     1.094005127843   111.24114517    62.69576584
 C     55  52  51     1.435589045391   117.08581742   204.67133791
 C      3   1  28     1.483981763868   109.57668531   123.98590296
 H     58  55  52     1.094609142206   109.59792118   266.40273543
 H     58  55  52     1.092482020042   109.92183660    24.33175211
 H     59   3   1     1.097611719975   111.23335078   200.74331100
 H     59   3   1     1.089497012738   108.27119002    83.64761595

---------------------------
INTERNAL COORDINATES (A.U.)
---------------------------
 Pb     0   0   0     0.000000000000     0.00000000     0.00000000
 N      1   0   0     5.463104879974     0.00000000     0.00000000
 N      1   2   0     5.655913129915   174.74412265     0.00000000
 C      2   1   3     2.789129132524   108.18110881   209.83213077
 C      4   2   1     2.861133351843   113.26404400    51.02925528
 H      4   2   1     2.058748995390   108.77451867   291.21754638
 H      4   2   1     2.075412984284   111.34714916   173.61884979
 O      5   4   2     2.711622605799   109.35612520   298.49710055
 H      5   4   2     2.067875540548   108.84952076   179.11663381
 H      5   4   2     2.070357441997   112.21678810    60.12473244
 C      8   5   4     2.710141131291   112.66923651   182.94083220
 C     11   8   5     2.845329344998   109.38166234   171.70103010
 H     11   8   5     2.068266771994   109.80719654    52.31322727
 H     11   8   5     2.069855312722   109.63676448   293.26044137
 O     12  11   8     2.711587283566   109.24290640    57.39849995
 H     12  11   8     2.069695278196   111.00898366   296.30201010
 H     12  11   8     2.067592093749   108.57876044   177.23452666
 C     15  12  11     2.708959994230   113.07625368   163.79849279
 C      3   1   8     2.798376193969   106.83717079   331.82645675
 H     18  15  12     2.065848842304   109.97317340    57.38114443
 H     18  15  12     2.068861601561   109.22201356   300.14787736
 H     19   3   1     2.077484958227   110.93245559   171.73631415
 H     19   3   1     2.060843217745   107.17852885   288.18942347
 C      3   1   8     2.794998311993   107.85811289    94.24676714
 C     24   3   1     2.878376573454   115.22416054   329.71711942
 H     24   3   1     2.076800218997   110.91765014   206.50953432
 H     24   3   1     2.060950833129   108.05291242    90.62802840
 O     25  24   3     2.718431879439   112.87393910    55.01730499
 H     25  24   3     2.052824872586   112.58785451   295.90700432
 H     25  24   3     2.065316539760   109.12059398   176.83398026
 C     28  25  24     2.712858226300   116.44129922    88.43996487
 C     31  28  25     2.845461030852   107.48976420   161.59006778
 H     31  28  25     2.065426888160   109.96250295    42.93008696
 H     31  28  25     2.068703100249   110.60481194   283.06779304
 O     32  31  28     2.716216978789   108.86588248    55.65471738
 H     32  31  28     2.067748553225   110.33541803   295.77494006
 H     32  31  28     2.067365458630   109.79077197   175.75837875
 C     35  32  31     2.721027599013   112.01570814   182.40568690
 C      2   1  28     2.802876172387   103.52972074   309.33630825
 H     38  35  32     2.066627327262   108.80838988    56.32848360
 H     38  35  32     2.067384388557   108.93160852   299.33122928
 H     39   2   1     2.077065968191   110.68194853   172.76145174
 H     39   2   1     2.058432055477   107.15926939   289.29333075
 C      2   1  28     2.814833520547   112.01737888   192.48873922
 C     44   2   1     2.878446371968   113.46936300     8.24960580
 H     44   2   1     2.060796140644   110.24441737   246.93399683
 H     44   2   1     2.064412439829   109.25151040   130.57644418
 O     45  44   2     2.704085873582   108.52520551    41.58964656
 H     45  44   2     2.074796455935   111.61781886   281.04770928
 H     45  44   2     2.066023540890   109.48754679   162.21551537
 C     48  45  44     2.703992085158   115.16346349   158.52633273
 C     51  48  45     2.850888850944   107.49359462   172.06992208
 H     51  48  45     2.070252691026   110.11196335    51.84903364
 H     51  48  45     2.067946297134   110.11085023   291.97697661
 O     52  51  48     2.713329739999   107.46291170   302.19171867
 H     52  51  48     2.065208265935   109.25605078   182.74231945
 H     52  51  48     2.067370080728   111.24114517    62.69576584
 C     55  52  51     2.712870136646   117.08581742   204.67133791
 C      3   1  28     2.804319121444   109.57668531   123.98590296
 H     58  55  52     2.068511502456   109.59792118   266.40273543
 H     58  55  52     2.064491824112   109.92183660    24.33175211
 H     59   3   1     2.074185552135   111.23335078   200.74331100
 H     59   3   1     2.058850977800   108.27119002    83.64761595

---------------------
BASIS SET INFORMATION
---------------------
There are 5 groups of distinct atoms

 Group   1 Type Pb  : 10s9p8d2f contracted to 6s5p3d2f pattern {421111/33111/611/11}
 Group   2 Type N   : 11s6p2d1f contracted to 5s3p2d1f pattern {62111/411/11/1}
 Group   3 Type C   : 11s6p2d1f contracted to 5s3p2d1f pattern {62111/411/11/1}
 Group   4 Type H   : 5s1p contracted to 3s1p pattern {311/1}
 Group   5 Type O   : 11s6p2d1f contracted to 5s3p2d1f pattern {62111/411/11/1}

Atom   0Pb   basis set group =>   1
Atom   1N    basis set group =>   2
Atom   2N    basis set group =>   2
Atom   3C    basis set group =>   3
Atom   4C    basis set group =>   3
Atom   5H    basis set group =>   4
Atom   6H    basis set group =>   4
Atom   7O    basis set group =>   5
Atom   8H    basis set group =>   4
Atom   9H    basis set group =>   4
Atom  10C    basis set group =>   3
Atom  11C    basis set group =>   3
Atom  12H    basis set group =>   4
Atom  13H    basis set group =>   4
Atom  14O    basis set group =>   5
Atom  15H    basis set group =>   4
Atom  16H    basis set group =>   4
Atom  17C    basis set group =>   3
Atom  18C    basis set group =>   3
Atom  19H    basis set group =>   4
Atom  20H    basis set group =>   4
Atom  21H    basis set group =>   4
Atom  22H    basis set group =>   4
Atom  23C    basis set group =>   3
Atom  24C    basis set group =>   3
Atom  25H    basis set group =>   4
Atom  26H    basis set group =>   4
Atom  27O    basis set group =>   5
Atom  28H    basis set group =>   4
Atom  29H    basis set group =>   4
Atom  30C    basis set group =>   3
Atom  31C    basis set group =>   3
Atom  32H    basis set group =>   4
Atom  33H    basis set group =>   4
Atom  34O    basis set group =>   5
Atom  35H    basis set group =>   4
Atom  36H    basis set group =>   4
Atom  37C    basis set group =>   3
Atom  38C    basis set group =>   3
Atom  39H    basis set group =>   4
Atom  40H    basis set group =>   4
Atom  41H    basis set group =>   4
Atom  42H    basis set group =>   4
Atom  43C    basis set group =>   3
Atom  44C    basis set group =>   3
Atom  45H    basis set group =>   4
Atom  46H    basis set group =>   4
Atom  47O    basis set group =>   5
Atom  48H    basis set group =>   4
Atom  49H    basis set group =>   4
Atom  50C    basis set group =>   3
Atom  51C    basis set group =>   3
Atom  52H    basis set group =>   4
Atom  53H    basis set group =>   4
Atom  54O    basis set group =>   5
Atom  55H    basis set group =>   4
Atom  56H    basis set group =>   4
Atom  57C    basis set group =>   3
Atom  58C    basis set group =>   3
Atom  59H    basis set group =>   4
Atom  60H    basis set group =>   4
Atom  61H    basis set group =>   4
Atom  62H    basis set group =>   4
---------------------------------
AUXILIARY/J BASIS SET INFORMATION
---------------------------------
There are 5 groups of distinct atoms

 Group   1 Type Pb  : 11s5p5d3f1g contracted to 8s4p3d2f1g pattern {41111111/2111/311/21/1}
 Group   2 Type N   : 12s5p4d2f1g contracted to 6s4p3d1f1g pattern {711111/2111/211/2/1}
 Group   3 Type C   : 12s5p4d2f1g contracted to 6s4p3d1f1g pattern {711111/2111/211/2/1}
 Group   4 Type H   : 5s2p1d contracted to 3s1p1d pattern {311/2/1}
 Group   5 Type O   : 12s5p4d2f1g contracted to 6s4p3d1f1g pattern {711111/2111/211/2/1}

Atom   0Pb   basis set group =>   1
Atom   1N    basis set group =>   2
Atom   2N    basis set group =>   2
Atom   3C    basis set group =>   3
Atom   4C    basis set group =>   3
Atom   5H    basis set group =>   4
Atom   6H    basis set group =>   4
Atom   7O    basis set group =>   5
Atom   8H    basis set group =>   4
Atom   9H    basis set group =>   4
Atom  10C    basis set group =>   3
Atom  11C    basis set group =>   3
Atom  12H    basis set group =>   4
Atom  13H    basis set group =>   4
Atom  14O    basis set group =>   5
Atom  15H    basis set group =>   4
Atom  16H    basis set group =>   4
Atom  17C    basis set group =>   3
Atom  18C    basis set group =>   3
Atom  19H    basis set group =>   4
Atom  20H    basis set group =>   4
Atom  21H    basis set group =>   4
Atom  22H    basis set group =>   4
Atom  23C    basis set group =>   3
Atom  24C    basis set group =>   3
Atom  25H    basis set group =>   4
Atom  26H    basis set group =>   4
Atom  27O    basis set group =>   5
Atom  28H    basis set group =>   4
Atom  29H    basis set group =>   4
Atom  30C    basis set group =>   3
Atom  31C    basis set group =>   3
Atom  32H    basis set group =>   4
Atom  33H    basis set group =>   4
Atom  34O    basis set group =>   5
Atom  35H    basis set group =>   4
Atom  36H    basis set group =>   4
Atom  37C    basis set group =>   3
Atom  38C    basis set group =>   3
Atom  39H    basis set group =>   4
Atom  40H    basis set group =>   4
Atom  41H    basis set group =>   4
Atom  42H    basis set group =>   4
Atom  43C    basis set group =>   3
Atom  44C    basis set group =>   3
Atom  45H    basis set group =>   4
Atom  46H    basis set group =>   4
Atom  47O    basis set group =>   5
Atom  48H    basis set group =>   4
Atom  49H    basis set group =>   4
Atom  50C    basis set group =>   3
Atom  51C    basis set group =>   3
Atom  52H    basis set group =>   4
Atom  53H    basis set group =>   4
Atom  54O    basis set group =>   5
Atom  55H    basis set group =>   4
Atom  56H    basis set group =>   4
Atom  57C    basis set group =>   3
Atom  58C    basis set group =>   3
Atom  59H    basis set group =>   4
Atom  60H    basis set group =>   4
Atom  61H    basis set group =>   4
Atom  62H    basis set group =>   4
-------------------------
ECP PARAMETER INFORMATION
-------------------------

 Group 1, Type Pb ECP Def2-ECP (replacing 60 core electrons, lmax=3)

Atom   0Pb   ECP group =>   1



           ************************************************************
           *        Program running with 32 parallel MPI-processes    *
           *              working on a common directory               *
           ************************************************************
------------------------------------------------------------------------------
                           ORCA GTO INTEGRAL CALCULATION
                           -- RI-GTO INTEGRALS CHOSEN --
------------------------------------------------------------------------------
------------------------------------------------------------------------------
                   ___                                                        
                  /   \      - P O W E R E D   B Y -                         
                 /     \                                                     
                 |  |  |   _    _      __       _____    __    __             
                 |  |  |  | |  | |    /  \     |  _  \  |  |  /  |          
                  \  \/   | |  | |   /    \    | | | |  |  | /  /          
                 / \  \   | |__| |  /  /\  \   | |_| |  |  |/  /          
                |  |  |   |  __  | /  /__\  \  |    /   |      \           
                |  |  |   | |  | | |   __   |  |    \   |  |\   \          
                \     /   | |  | | |  |  |  |  | |\  \  |  | \   \       
                 \___/    |_|  |_| |__|  |__|  |_| \__\ |__|  \__/        
                                                                              
                      - O R C A' S   B I G   F R I E N D -                    
                                      &                                       
                       - I N T E G R A L  F E E D E R -                       
                                                                              
 v1 FN, 2020, v2 2021                                                         
------------------------------------------------------------------------------


Reading SHARK input file Pb_complex_large_mk.orca.SHARKINP.tmp ... ok
----------------------
SHARK INTEGRAL PACKAGE
----------------------

Number of atoms                             ...     63
Number of basis functions                   ...   1072
Number of shells                            ...    446
Maximum angular momentum                    ...      3
Integral batch strategy                     ... SHARK/LIBINT Hybrid
RI-J (if used) integral strategy            ... SPLIT-RIJ (Revised 2003 algorithm where possible)
Printlevel                                  ...      1
Contraction scheme used                     ... SEGMENTED contraction
Coulomb Range Separation                    ... NOT USED
Exchange Range Separation                   ... NOT USED
Finite Nucleus Model                        ... NOT USED
Auxiliary Coulomb fitting basis             ... AVAILABLE
   # of basis functions in Aux-J            ...   1728
   # of shells in Aux-J                     ...    588
   Maximum angular momentum in Aux-J        ...      4
Auxiliary J/K fitting basis                 ... NOT available
Auxiliary Correlation fitting basis         ... NOT available
Auxiliary 'external' fitting basis          ... NOT available
Integral threshold                          ...     1.000000e-10
Primitive cut-off                           ...     1.000000e-11
Primitive pair pre-selection threshold      ...     1.000000e-11

Calculating pre-screening integrals         ... done (  0.1 sec) Dimension = 446
Organizing shell pair data                  ... done (  1.5 sec)
Shell pair information
Total number of shell pairs                 ...     99681
Shell pairs after pre-screening             ...     67156
Total number of primitive shell pairs       ...    293703
Primitive shell pairs kept                  ...    128353
          la=0 lb=0:  20097 shell pairs
          la=1 lb=0:  20088 shell pairs
          la=1 lb=1:   5127 shell pairs
          la=2 lb=0:   8761 shell pairs
          la=2 lb=1:   4532 shell pairs
          la=2 lb=2:   1056 shell pairs
          la=3 lb=0:   4175 shell pairs
          la=3 lb=1:   2154 shell pairs
          la=3 lb=2:    941 shell pairs
          la=3 lb=3:    225 shell pairs

Calculating one electron integrals          ... done (  0.1 sec)
Calculating ECP integrals                   ... done (  3.4 sec)
Calculating RI/J V-Matrix + Cholesky decomp.... done (  0.9 sec)
Calculating Nuclear repulsion               ... done (  0.1 sec) ENN=   3519.638838711510 Eh

SHARK setup successfully completed in   8.7 seconds

Maximum memory used throughout the entire GTOINT-calculation: 99.5 MB


           ************************************************************
           *        Program running with 32 parallel MPI-processes    *
           *              working on a common directory               *
           ************************************************************
-------------------------------------------------------------------------------
                                 ORCA SCF
-------------------------------------------------------------------------------

------------
SCF SETTINGS
------------
Hamiltonian:
 Density Functional     Method          .... DFT(GTOs)
 Exchange Functional    Exchange        .... B88
   X-Alpha parameter    XAlpha          ....  0.666667
   Becke's b parameter  XBeta           ....  0.004200
 Correlation Functional Correlation     .... LYP
 LDA part of GGA corr.  LDAOpt          .... VWN-5
 Gradients option       PostSCFGGA      .... off
 Hybrid DFT is turned on
   Fraction HF Exchange ScalHFX         ....  0.200000
   Scaling of DF-GGA-X  ScalDFX         ....  0.720000
   Scaling of DF-GGA-C  ScalDFC         ....  0.810000
   Scaling of DF-LDA-C  ScalLDAC        ....  1.000000
   Perturbative correction              ....  0.000000
   Density functional embedding theory  .... OFF
   NL short-range parameter             ....  4.800000
 RI-approximation to the Coulomb term is turned on
   Number of AuxJ basis functions       .... 1728
   RIJ-COSX (HFX calculated with COS-X)).... on


General Settings:
 Integral files         IntName         .... Pb_complex_large_mk.orca
 Hartree-Fock type      HFTyp           .... RHF
 Total Charge           Charge          ....    2
 Multiplicity           Mult            ....    1
 Number of Electrons    NEL             ....  226
 Basis Dimension        Dim             .... 1072
 Nuclear Repulsion      ENuc            ....   3519.6388387115 Eh

Convergence Acceleration:
 DIIS                   CNVDIIS         .... on
   Start iteration      DIISMaxIt       ....    12
   Startup error        DIISStart       ....  0.200000
   # of expansion vecs  DIISMaxEq       ....     5
   Bias factor          DIISBfac        ....   1.050
   Max. coefficient     DIISMaxC        ....  10.000
 Trust-Rad. Augm. Hess. CNVTRAH         .... auto
   Auto Start mean grad. ratio tolernc. ....  1.125000
   Auto Start start iteration           ....    20
   Auto Start num. interpolation iter.  ....    10
   Max. Number of Micro iterations      ....    16
   Max. Number of Macro iterations      .... Maxiter - #DIIS iter
   Number of Davidson start vectors     ....     2
   Converg. threshold I  (grad. norm)   ....   5.000e-05
   Converg. threshold II (energy diff.) ....   1.000e-06
   Grad. Scal. Fac. for Micro threshold ....   0.100
   Minimum threshold for Micro iter.    ....   0.010
   NR start threshold (gradient norm)   ....   0.001
   Initial trust radius                 ....   0.400
   Minimum AH scaling param. (alpha)    ....   1.000
   Maximum AH scaling param. (alpha)    .... 1000.000
   Orbital update algorithm             .... Taylor
   White noise on init. David. guess    .... on
   Maximum white noise                  ....   0.010
   Quad. conv. algorithm                .... NR
 SOSCF                  CNVSOSCF        .... on
   Start iteration      SOSCFMaxIt      ....   150
   Startup grad/error   SOSCFStart      ....  0.003300
 Level Shifting         CNVShift        .... on
   Level shift para.    LevelShift      ....    0.2500
   Turn off err/grad.   ShiftErr        ....    0.0010
 Zerner damping         CNVZerner       .... off
 Static damping         CNVDamp         .... on
   Fraction old density DampFac         ....    0.7000
   Max. Damping (<1)    DampMax         ....    0.9800
   Min. Damping (>=0)   DampMin         ....    0.0000
   Turn off err/grad.   DampErr         ....    0.1000
 Fernandez-Rico         CNVRico         .... off

SCF Procedure:
 Maximum # iterations   MaxIter         ....   125
 SCF integral mode      SCFMode         .... Direct
   Integral package                     .... SHARK and LIBINT hybrid scheme
 Reset frequency        DirectResetFreq ....    20
 Integral Threshold     Thresh          ....  1.000e-10 Eh
 Primitive CutOff       TCut            ....  1.000e-11 Eh

Convergence Tolerance:
 Convergence Check Mode ConvCheckMode   .... Total+1el-Energy
 Convergence forced     ConvForced      .... 0
 Energy Change          TolE            ....  1.000e-06 Eh
 1-El. energy change                    ....  1.000e-03 Eh
 Orbital Gradient       TolG            ....  5.000e-05
 Orbital Rotation angle TolX            ....  5.000e-05
 DIIS Error             TolErr          ....  1.000e-06


Diagonalization of the overlap matrix:
Smallest eigenvalue                        ... 9.395e-05
Time for diagonalization                   ...    0.257 sec
Threshold for overlap eigenvalues          ... 1.000e-08
Number of eigenvalues below threshold      ... 0
Time for construction of square roots      ...    0.418 sec
Total time needed                          ...    0.680 sec

Time for model grid setup =    1.384 sec

------------------------------
INITIAL GUESS: MODEL POTENTIAL
------------------------------
Loading Hartree-Fock densities                     ... done
  calling /opt/orca/5.0.2/orca Pb_complex_large_mk.orca_atom82.inp > Pb_complex_large_mk.orca_atom82.out in order to generate an atomic fitting density for atom 0 (Pb with ECP) on-the-fly... 
    atom 0 (Pb), assumed electronic state with S=3: 1s2 2s2 2p6 3s2 3p6 4s2 3d10 4p6 5s2 4d10 5p6 6s2 4f14 5d10 6p2           ... done
Calculating cut-offs                               ... done
Initializing the effective Hamiltonian             ... done
Setting up the integral package (SHARK)            ... done
Starting the Coulomb interaction                   ... done (   0.4 sec)
Reading the grid                                   ... done
Mapping shells                                     ... done
Starting the XC term evaluation                    ... done (   0.1 sec)
  promolecular density results
     # of electrons  =    287.971958949
     EX              =   -558.318113195
     EC              =    -11.487799045
     EX+EC           =   -569.805912240
Transforming the Hamiltonian                       ... done (   0.1 sec)
Diagonalizing the Hamiltonian                      ... done (   0.2 sec)
Back transforming the eigenvectors                 ... done (   0.0 sec)
Now organizing SCF variables                       ... done
                      ------------------
                      INITIAL GUESS DONE (   6.7 sec)
                      ------------------
-------------------
DFT GRID GENERATION
-------------------

General Integration Accuracy     IntAcc      ... 4.388
Radial Grid Type                 RadialGrid  ... OptM3 with GC (2021)
Angular Grid (max. ang.)         AngularGrid ... 4 (Lebedev-302)
Angular grid pruning method      GridPruning ... 4 (adaptive)
Weight generation scheme         WeightScheme... Becke
Basis function cutoff            BFCut       ... 1.0000e-10
Integration weight cutoff        WCut        ... 1.0000e-14
Angular grids for H and He will be reduced by one unit
Partially contracted basis set               ... off
Rotationally invariant grid construction     ... off

Total number of grid points                  ...   277294
Total number of batches                      ...     4364
Average number of points per batch           ...       63
Average number of grid points per atom       ...     4401
Time for grid setup =    2.796 sec

--------------------
COSX GRID GENERATION
--------------------

GRIDX 1
-------
General Integration Accuracy     IntAcc      ... 3.816
Radial Grid Type                 RadialGrid  ... OptM3 with GC (2021)
Angular Grid (max. ang.)         AngularGrid ... 1 (Lebedev-50)
Angular grid pruning method      GridPruning ... 4 (adaptive)
Weight generation scheme         WeightScheme... Becke
Basis function cutoff            BFCut       ... 1.0000e-10
Integration weight cutoff        WCut        ... 1.0000e-14
Angular grids for H and He will be reduced by one unit
Partially contracted basis set               ... on
Rotationally invariant grid construction     ... off

Total number of grid points                  ...    35027
Total number of batches                      ...      591
Average number of points per batch           ...       59
Average number of grid points per atom       ...      556
UseSFitting                                  ... on

GRIDX 2
-------
General Integration Accuracy     IntAcc      ... 4.020
Radial Grid Type                 RadialGrid  ... OptM3 with GC (2021)
Angular Grid (max. ang.)         AngularGrid ... 2 (Lebedev-110)
Angular grid pruning method      GridPruning ... 4 (adaptive)
Weight generation scheme         WeightScheme... Becke
Basis function cutoff            BFCut       ... 1.0000e-10
Integration weight cutoff        WCut        ... 1.0000e-14
Angular grids for H and He will be reduced by one unit
Partially contracted basis set               ... on
Rotationally invariant grid construction     ... off

Total number of grid points                  ...    73693
Total number of batches                      ...     1185
Average number of points per batch           ...       62
Average number of grid points per atom       ...     1170
UseSFitting                                  ... on

GRIDX 3
-------
General Integration Accuracy     IntAcc      ... 4.338
Radial Grid Type                 RadialGrid  ... OptM3 with GC (2021)
Angular Grid (max. ang.)         AngularGrid ... 3 (Lebedev-194)
Angular grid pruning method      GridPruning ... 4 (adaptive)
Weight generation scheme         WeightScheme... Becke
Basis function cutoff            BFCut       ... 1.0000e-10
Integration weight cutoff        WCut        ... 1.0000e-14
Angular grids for H and He will be reduced by one unit
Partially contracted basis set               ... on
Rotationally invariant grid construction     ... off

Total number of grid points                  ...   158411
Total number of batches                      ...     2506
Average number of points per batch           ...       63
Average number of grid points per atom       ...     2514
UseSFitting                                  ... on

Time for X-Grid setup             =    7.061 sec

--------------
SCF ITERATIONS
--------------
ITER       Energy         Delta-E        Max-DP      RMS-DP      [F,P]     Damp
               ***  Starting incremental Fock matrix formation  ***
  0  -1326.6041880177   0.00000000000023.00372822  0.09131702  4.1191331 0.7000
  1  -1403.6963779111 -77.092189893322 7.05920867  0.02858285  1.5203147 0.7000
  2  -1419.3932932407 -15.696915329642 5.35687662  0.02158296  0.4677289 0.7000
  3  -1432.1786890447 -12.785395804009 3.79228541  0.01529393  0.3697774 0.7000
  4  -1440.6921648903  -8.513475845608 2.68208265  0.01084274  0.2765850 0.7000
  5  -1446.6272234017  -5.935058511349 1.88288562  0.00764928  0.2009783 0.7000
                               ***Turning on DIIS***
  6  -1450.7833471200  -4.156123718353 1.31774157  0.00537899  0.1618901 0.7000
  7  -1453.6961661113  -2.912818991258 0.92027942  0.00378528  0.1254334 0.7000
  8  -1455.7385747812  -2.042408669958 2.14224689  0.00883984  0.0880583 0.0000
  9  -1460.5215305170  -4.782955735782 0.01869046  0.00005962  0.0043882 0.0000
                      *** Initiating the SOSCF procedure ***
                           *** Shutting down DIIS ***
                      *** Re-Reading the Fockian *** 
                      *** Removing any level shift *** 
ITER      Energy       Delta-E        Grad      Rot      Max-DP    RMS-DP
 10  -1460.52172649  -0.0001959753  0.000556  0.000556  0.006289  0.000023
               *** Restarting incremental Fock matrix formation ***
 11  -1460.52166616   0.0000603277  0.000297  0.001181  0.004544  0.000025
 12  -1460.52166905  -0.0000028864  0.000167  0.000434  0.001210  0.000009
 13  -1460.52167591  -0.0000068600  0.000051  0.000248  0.001219  0.000008
 14  -1460.52167636  -0.0000004471  0.000019  0.000033  0.000275  0.000001
                 **** Energy Check signals convergence ****
              ***Rediagonalizing the Fockian in SOSCF/NRSCF***

               *****************************************************
               *                     SUCCESS                       *
               *           SCF CONVERGED AFTER  15 CYCLES          *
               *****************************************************

Old exchange energy                            =    -36.711525192 Eh
New exchange energy                            =    -36.711532131 Eh
Exchange energy change after final integration =     -0.000006939 Eh
Total energy after final integration           =  -1460.521683325 Eh
Final COS-X integration done in                =    16.153 sec

----------------
TOTAL SCF ENERGY
----------------

Total Energy       :        -1460.52168333 Eh          -39742.81549 eV

Components:
Nuclear Repulsion  :         3519.63883871 Eh           95774.24187 eV
Electronic Energy  :        -4980.16052204 Eh         -135517.05736 eV
One Electron Energy:        -9022.12961636 Eh         -245504.62808 eV
Two Electron Energy:         4041.96909432 Eh          109987.57072 eV
Max COSX asymmetry :            0.00000478 Eh               0.00013 eV

Virial components:
Potential Energy   :        -2785.30201801 Eh          -75791.92110 eV
Kinetic Energy     :         1324.78033468 Eh           36049.10561 eV
Virial Ratio       :            2.10246329


DFT components:
N(Alpha)           :      112.999753225989 electrons
N(Beta)            :      112.999753225989 electrons
N(Total)           :      225.999506451978 electrons
E(X)               :     -145.995879611009 Eh       
E(C)               :       -9.114762599769 Eh       
E(XC)              :     -155.110642210777 Eh       
DFET-embed. en.    :        0.000000000000 Eh       

---------------
SCF CONVERGENCE
---------------

  Last Energy change         ...   -2.7881e-08  Tolerance :   1.0000e-06
  Last MAX-Density change    ...    3.9968e-15  Tolerance :   1.0000e-05
  Last RMS-Density change    ...    1.4634e-17  Tolerance :   1.0000e-06
  Last Orbital Gradient      ...    1.8914e-05  Tolerance :   5.0000e-05
  Last Orbital Rotation      ...    4.5812e-05  Tolerance :   5.0000e-05

             **** THE GBW FILE WAS UPDATED (Pb_complex_large_mk.orca.gbw) ****
             **** DENSITY Pb_complex_large_mk.orca.scfp WAS UPDATED ****
             **** ENERGY FILE WAS UPDATED (Pb_complex_large_mk.orca.en.tmp) ****
             **** THE GBW FILE WAS UPDATED (Pb_complex_large_mk.orca.gbw) ****
             **** DENSITY Pb_complex_large_mk.orca.scfp WAS UPDATED ****
----------------
ORBITAL ENERGIES
----------------

  NO   OCC          E(Eh)            E(eV) 
   0   2.0000     -19.382352      -527.4206 
   1   2.0000     -19.382000      -527.4110 
   2   2.0000     -19.371170      -527.1163 
   3   2.0000     -19.369855      -527.0805 
   4   2.0000     -19.369615      -527.0740 
   5   2.0000     -19.367792      -527.0244 
   6   2.0000     -14.553394      -396.0180 
   7   2.0000     -14.551561      -395.9681 
   8   2.0000     -10.450092      -284.3615 
   9   2.0000     -10.445770      -284.2438 
  10   2.0000     -10.444041      -284.1968 
  11   2.0000     -10.442212      -284.1470 
  12   2.0000     -10.440266      -284.0941 
  13   2.0000     -10.439454      -284.0720 
  14   2.0000     -10.439408      -284.0707 
  15   2.0000     -10.437903      -284.0298 
  16   2.0000     -10.437609      -284.0218 
  17   2.0000     -10.437514      -284.0192 
  18   2.0000     -10.437416      -284.0165 
  19   2.0000     -10.437403      -284.0162 
  20   2.0000     -10.418313      -283.4967 
  21   2.0000     -10.416055      -283.4353 
  22   2.0000     -10.415851      -283.4297 
  23   2.0000     -10.415128      -283.4100 
  24   2.0000     -10.414946      -283.4051 
  25   2.0000     -10.413943      -283.3778 
  26   2.0000      -5.742249      -156.2545 
  27   2.0000      -3.575853       -97.3039 
  28   2.0000      -3.574958       -97.2795 
  29   2.0000      -3.573153       -97.2304 
  30   2.0000      -1.285378       -34.9769 
  31   2.0000      -1.276146       -34.7257 
  32   2.0000      -1.274291       -34.6752 
  33   2.0000      -1.267667       -34.4950 
  34   2.0000      -1.258904       -34.2565 
  35   2.0000      -1.258290       -34.2398 
  36   2.0000      -1.151828       -31.3428 
  37   2.0000      -1.149844       -31.2889 
  38   2.0000      -1.084136       -29.5008 
  39   2.0000      -1.083783       -29.4912 
  40   2.0000      -1.082117       -29.4459 
  41   2.0000      -1.080770       -29.4092 
  42   2.0000      -1.079856       -29.3844 
  43   2.0000      -1.018220       -27.7072 
  44   2.0000      -1.014658       -27.6102 
  45   2.0000      -0.997092       -27.1322 
  46   2.0000      -0.986483       -26.8436 
  47   2.0000      -0.985533       -26.8177 
  48   2.0000      -0.950433       -25.8626 
  49   2.0000      -0.943057       -25.6619 
  50   2.0000      -0.935159       -25.4470 
  51   2.0000      -0.909595       -24.7514 
  52   2.0000      -0.868013       -23.6198 
  53   2.0000      -0.854859       -23.2619 
  54   2.0000      -0.847645       -23.0656 
  55   2.0000      -0.839483       -22.8435 
  56   2.0000      -0.839186       -22.8354 
  57   2.0000      -0.827654       -22.5216 
  58   2.0000      -0.823290       -22.4028 
  59   2.0000      -0.800333       -21.7782 
  60   2.0000      -0.793805       -21.6005 
  61   2.0000      -0.762385       -20.7455 
  62   2.0000      -0.745720       -20.2921 
  63   2.0000      -0.742328       -20.1998 
  64   2.0000      -0.740189       -20.1416 
  65   2.0000      -0.739607       -20.1257 
  66   2.0000      -0.734006       -19.9733 
  67   2.0000      -0.725686       -19.7469 
  68   2.0000      -0.723693       -19.6927 
  69   2.0000      -0.718435       -19.5496 
  70   2.0000      -0.709227       -19.2990 
  71   2.0000      -0.701241       -19.0817 
  72   2.0000      -0.699730       -19.0406 
  73   2.0000      -0.694803       -18.9066 
  74   2.0000      -0.687061       -18.6959 
  75   2.0000      -0.683508       -18.5992 
  76   2.0000      -0.679901       -18.5011 
  77   2.0000      -0.678604       -18.4657 
  78   2.0000      -0.671179       -18.2637 
  79   2.0000      -0.665126       -18.0990 
  80   2.0000      -0.659277       -17.9399 
  81   2.0000      -0.650695       -17.7063 
  82   2.0000      -0.647682       -17.6243 
  83   2.0000      -0.639509       -17.4019 
  84   2.0000      -0.638352       -17.3704 
  85   2.0000      -0.626081       -17.0365 
  86   2.0000      -0.620956       -16.8971 
  87   2.0000      -0.618406       -16.8277 
  88   2.0000      -0.615274       -16.7425 
  89   2.0000      -0.610767       -16.6198 
  90   2.0000      -0.607177       -16.5221 
  91   2.0000      -0.601559       -16.3693 
  92   2.0000      -0.599386       -16.3101 
  93   2.0000      -0.587749       -15.9935 
  94   2.0000      -0.586935       -15.9713 
  95   2.0000      -0.581338       -15.8190 
  96   2.0000      -0.576959       -15.6999 
  97   2.0000      -0.575237       -15.6530 
  98   2.0000      -0.574094       -15.6219 
  99   2.0000      -0.569314       -15.4918 
 100   2.0000      -0.561549       -15.2805 
 101   2.0000      -0.558488       -15.1972 
 102   2.0000      -0.554251       -15.0819 
 103   2.0000      -0.550395       -14.9770 
 104   2.0000      -0.538898       -14.6642 
 105   2.0000      -0.512397       -13.9430 
 106   2.0000      -0.509704       -13.8697 
 107   2.0000      -0.503841       -13.7102 
 108   2.0000      -0.500933       -13.6311 
 109   2.0000      -0.499054       -13.5800 
 110   2.0000      -0.495918       -13.4946 
 111   2.0000      -0.472375       -12.8540 
 112   2.0000      -0.456121       -12.4117 
 113   0.0000      -0.267132        -7.2690 
 114   0.0000      -0.245016        -6.6672 
 115   0.0000      -0.220138        -5.9903 
 116   0.0000      -0.181475        -4.9382 
 117   0.0000      -0.169032        -4.5996 
 118   0.0000      -0.166817        -4.5393 
 119   0.0000      -0.163048        -4.4368 
 120   0.0000      -0.160770        -4.3748 
 121   0.0000      -0.154658        -4.2085 
 122   0.0000      -0.147704        -4.0192 
 123   0.0000      -0.143810        -3.9133 
 124   0.0000      -0.142833        -3.8867 
 125   0.0000      -0.139925        -3.8076 
 126   0.0000      -0.133068        -3.6210 
 127   0.0000      -0.127702        -3.4750 
 128   0.0000      -0.126713        -3.4480 
 129   0.0000      -0.122971        -3.3462 
 130   0.0000      -0.121803        -3.3144 
 131   0.0000      -0.118548        -3.2258 
 132   0.0000      -0.116598        -3.1728 
 133   0.0000      -0.116276        -3.1640 
 134   0.0000      -0.112185        -3.0527 
 135   0.0000      -0.108256        -2.9458 
 136   0.0000      -0.106916        -2.9093 
 137   0.0000      -0.100351        -2.7307 
 138   0.0000      -0.098882        -2.6907 
 139   0.0000      -0.096262        -2.6194 
 140   0.0000      -0.093644        -2.5482 
 141   0.0000      -0.088865        -2.4181 
 142   0.0000      -0.087875        -2.3912 
 143   0.0000      -0.085986        -2.3398 
 144   0.0000      -0.084688        -2.3045 
 145   0.0000      -0.081330        -2.2131 
 146   0.0000      -0.078119        -2.1257 
 147   0.0000      -0.075978        -2.0675 
 148   0.0000      -0.072427        -1.9708 
 149   0.0000      -0.069522        -1.8918 
 150   0.0000      -0.067527        -1.8375 
 151   0.0000      -0.062902        -1.7116 
 152   0.0000      -0.058511        -1.5922 
 153   0.0000      -0.057097        -1.5537 
 154   0.0000      -0.054253        -1.4763 
 155   0.0000      -0.050765        -1.3814 
 156   0.0000      -0.049186        -1.3384 
 157   0.0000      -0.048540        -1.3208 
 158   0.0000      -0.044428        -1.2090 
 159   0.0000      -0.040092        -1.0910 
 160   0.0000      -0.037228        -1.0130 
 161   0.0000      -0.034476        -0.9381 
 162   0.0000      -0.031842        -0.8665 
 163   0.0000      -0.028091        -0.7644 
 164   0.0000      -0.024349        -0.6626 
 165   0.0000      -0.021805        -0.5933 
 166   0.0000      -0.020484        -0.5574 
 167   0.0000      -0.018057        -0.4914 
 168   0.0000      -0.013582        -0.3696 
 169   0.0000      -0.012646        -0.3441 
 170   0.0000      -0.008356        -0.2274 
 171   0.0000      -0.005135        -0.1397 
 172   0.0000       0.001361         0.0370 
 173   0.0000       0.008607         0.2342 
 174   0.0000       0.010337         0.2813 
 175   0.0000       0.015631         0.4254 
 176   0.0000       0.024209         0.6588 
 177   0.0000       0.027455         0.7471 
 178   0.0000       0.030840         0.8392 
 179   0.0000       0.033240         0.9045 
 180   0.0000       0.035153         0.9566 
 181   0.0000       0.040084         1.0908 
 182   0.0000       0.043136         1.1738 
 183   0.0000       0.050989         1.3875 
 184   0.0000       0.054669         1.4876 
 185   0.0000       0.063511         1.7282 
 186   0.0000       0.066740         1.8161 
 187   0.0000       0.071008         1.9322 
 188   0.0000       0.074010         2.0139 
 189   0.0000       0.077600         2.1116 
 190   0.0000       0.081044         2.2053 
 191   0.0000       0.084120         2.2890 
 192   0.0000       0.091590         2.4923 
 193   0.0000       0.092267         2.5107 
 194   0.0000       0.096675         2.6306 
 195   0.0000       0.101395         2.7591 
 196   0.0000       0.103809         2.8248 
 197   0.0000       0.111701         3.0395 
 198   0.0000       0.114392         3.1128 
 199   0.0000       0.118144         3.2149 
 200   0.0000       0.119163         3.2426 
 201   0.0000       0.119498         3.2517 
 202   0.0000       0.124349         3.3837 
 203   0.0000       0.125691         3.4202 
 204   0.0000       0.133236         3.6255 
 205   0.0000       0.140429         3.8213 
 206   0.0000       0.145372         3.9558 
 207   0.0000       0.150003         4.0818 
 208   0.0000       0.152357         4.1458 
 209   0.0000       0.153584         4.1792 
 210   0.0000       0.156579         4.2607 
 211   0.0000       0.163430         4.4472 
 212   0.0000       0.166780         4.5383 
 213   0.0000       0.171487         4.6664 
 214   0.0000       0.172506         4.6941 
 215   0.0000       0.178301         4.8518 
 216   0.0000       0.179814         4.8930 
 217   0.0000       0.185737         5.0542 
 218   0.0000       0.188129         5.1192 
 219   0.0000       0.193759         5.2725 
 220   0.0000       0.195826         5.3287 
 221   0.0000       0.198185         5.3929 
 222   0.0000       0.202491         5.5101 
 223   0.0000       0.204451         5.5634 
 224   0.0000       0.205437         5.5902 
 225   0.0000       0.207401         5.6437 
 226   0.0000       0.209553         5.7022 
 227   0.0000       0.210713         5.7338 
 228   0.0000       0.212842         5.7917 
 229   0.0000       0.215134         5.8541 
 230   0.0000       0.216287         5.8855 
 231   0.0000       0.217430         5.9166 
 232   0.0000       0.221177         6.0185 
 233   0.0000       0.223051         6.0695 
 234   0.0000       0.225099         6.1252 
 235   0.0000       0.227210         6.1827 
 236   0.0000       0.229081         6.2336 
 237   0.0000       0.233809         6.3623 
 238   0.0000       0.237732         6.4690 
 239   0.0000       0.239958         6.5296 
 240   0.0000       0.242234         6.5915 
 241   0.0000       0.243625         6.6294 
 242   0.0000       0.247312         6.7297 
 243   0.0000       0.252304         6.8655 
 244   0.0000       0.253601         6.9008 
 245   0.0000       0.255661         6.9569 
 246   0.0000       0.257101         6.9961 
 247   0.0000       0.260953         7.1009 
 248   0.0000       0.262146         7.1334 
 249   0.0000       0.263487         7.1698 
 250   0.0000       0.265679         7.2295 
 251   0.0000       0.267629         7.2826 
 252   0.0000       0.270456         7.3595 
 253   0.0000       0.272015         7.4019 
 254   0.0000       0.276057         7.5119 
 255   0.0000       0.279042         7.5931 
 256   0.0000       0.283666         7.7189 
 257   0.0000       0.286047         7.7837 
 258   0.0000       0.289004         7.8642 
 259   0.0000       0.290460         7.9038 
 260   0.0000       0.293767         7.9938 
 261   0.0000       0.298505         8.1227 
 262   0.0000       0.300027         8.1641 
 263   0.0000       0.303121         8.2483 
 264   0.0000       0.305667         8.3176 
 265   0.0000       0.307709         8.3732 
 266   0.0000       0.310638         8.4529 
 267   0.0000       0.315975         8.5981 
 268   0.0000       0.316635         8.6161 
 269   0.0000       0.320659         8.7256 
 270   0.0000       0.324807         8.8384 
 271   0.0000       0.326862         8.8944 
 272   0.0000       0.331832         9.0296 
 273   0.0000       0.335378         9.1261 
 274   0.0000       0.340867         9.2755 
 275   0.0000       0.344820         9.3830 
 276   0.0000       0.347920         9.4674 
 277   0.0000       0.350103         9.5268 
 278   0.0000       0.357540         9.7291 
 279   0.0000       0.360956         9.8221 
 280   0.0000       0.365404         9.9432 
 281   0.0000       0.370685        10.0869 
 282   0.0000       0.373578        10.1656 
 283   0.0000       0.381296        10.3756 
 284   0.0000       0.390533        10.6269 
 285   0.0000       0.395051        10.7499 
 286   0.0000       0.406278        11.0554 
 287   0.0000       0.409490        11.1428 
 288   0.0000       0.418550        11.3893 
 289   0.0000       0.420458        11.4412 
 290   0.0000       0.425003        11.5649 
 291   0.0000       0.427236        11.6257 
 292   0.0000       0.432702        11.7744 
 293   0.0000       0.440075        11.9750 
 294   0.0000       0.449193        12.2232 
 295   0.0000       0.454244        12.3606 
 296   0.0000       0.459006        12.4902 
 297   0.0000       0.468527        12.7493 
 298   0.0000       0.473304        12.8793 
 299   0.0000       0.482395        13.1266 
 300   0.0000       0.484018        13.1708 
 301   0.0000       0.486360        13.2345 
 302   0.0000       0.494729        13.4623 
 303   0.0000       0.500911        13.6305 
 304   0.0000       0.503829        13.7099 
 305   0.0000       0.514660        14.0046 
 306   0.0000       0.516068        14.0429 
 307   0.0000       0.522432        14.2161 
 308   0.0000       0.533150        14.5078 
 309   0.0000       0.534470        14.5437 
 310   0.0000       0.541211        14.7271 
 311   0.0000       0.544064        14.8047 
 312   0.0000       0.552202        15.0262 
 313   0.0000       0.558754        15.2045 
 314   0.0000       0.562399        15.3037 
 315   0.0000       0.570969        15.5368 
 316   0.0000       0.572819        15.5872 
 317   0.0000       0.578838        15.7510 
 318   0.0000       0.585692        15.9375 
 319   0.0000       0.588969        16.0267 
 320   0.0000       0.591564        16.0973 
 321   0.0000       0.596179        16.2229 
 322   0.0000       0.598463        16.2850 
 323   0.0000       0.600269        16.3341 
 324   0.0000       0.606741        16.5102 
 325   0.0000       0.610672        16.6172 
 326   0.0000       0.614879        16.7317 
 327   0.0000       0.617855        16.8127 
 328   0.0000       0.620905        16.8957 
 329   0.0000       0.630456        17.1556 
 330   0.0000       0.639800        17.4099 
 331   0.0000       0.645035        17.5523 
 332   0.0000       0.648411        17.6442 
 333   0.0000       0.652103        17.7446 
 334   0.0000       0.654795        17.8179 
 335   0.0000       0.665992        18.1226 
 336   0.0000       0.669173        18.2091 
 337   0.0000       0.673610        18.3299 
 338   0.0000       0.681452        18.5433 
 339   0.0000       0.684326        18.6215 
 340   0.0000       0.691209        18.8088 
 341   0.0000       0.697010        18.9666 
 342   0.0000       0.700574        19.0636 
 343   0.0000       0.703226        19.1358 
 344   0.0000       0.705759        19.2047 
 345   0.0000       0.712292        19.3824 
 346   0.0000       0.722747        19.6669 
 347   0.0000       0.724251        19.7079 
 348   0.0000       0.726547        19.7703 
 349   0.0000       0.727055        19.7842 
 350   0.0000       0.734644        19.9907 
 351   0.0000       0.735906        20.0250 
 352   0.0000       0.740711        20.1558 
 353   0.0000       0.743837        20.2408 
 354   0.0000       0.746271        20.3071 
 355   0.0000       0.748796        20.3758 
 356   0.0000       0.753094        20.4927 
 357   0.0000       0.761373        20.7180 
 358   0.0000       0.762310        20.7435 
 359   0.0000       0.767428        20.8828 
 360   0.0000       0.769108        20.9285 
 361   0.0000       0.776526        21.1303 
 362   0.0000       0.782030        21.2801 
 363   0.0000       0.790226        21.5031 
 364   0.0000       0.798364        21.7246 
 365   0.0000       0.800004        21.7692 
 366   0.0000       0.803267        21.8580 
 367   0.0000       0.815425        22.1888 
 368   0.0000       0.824245        22.4288 
 369   0.0000       0.829224        22.5643 
 370   0.0000       0.834765        22.7151 
 371   0.0000       0.843384        22.9496 
 372   0.0000       0.852742        23.2043 
 373   0.0000       0.856904        23.3176 
 374   0.0000       0.864602        23.5270 
 375   0.0000       0.873740        23.7757 
 376   0.0000       0.886718        24.1288 
 377   0.0000       0.897635        24.4259 
 378   0.0000       0.901760        24.5381 
 379   0.0000       0.906288        24.6613 
 380   0.0000       0.915335        24.9075 
 381   0.0000       0.919068        25.0091 
 382   0.0000       0.928072        25.2541 
 383   0.0000       0.933702        25.4073 
 384   0.0000       0.937012        25.4974 
 385   0.0000       0.941590        25.6220 
 386   0.0000       0.946365        25.7519 
 387   0.0000       0.956628        26.0312 
 388   0.0000       0.959559        26.1109 
 389   0.0000       0.964056        26.2333 
 390   0.0000       0.969696        26.3868 
 391   0.0000       0.975222        26.5371 
 392   0.0000       0.978029        26.6135 
 393   0.0000       0.990441        26.9513 
 394   0.0000       0.996925        27.1277 
 395   0.0000       1.002769        27.2867 
 396   0.0000       1.012101        27.5407 
 397   0.0000       1.017444        27.6861 
 398   0.0000       1.022706        27.8292 
 399   0.0000       1.024517        27.8785 
 400   0.0000       1.028622        27.9902 
 401   0.0000       1.031790        28.0764 
 402   0.0000       1.039007        28.2728 
 403   0.0000       1.039559        28.2879 
 404   0.0000       1.045827        28.4584 
 405   0.0000       1.047747        28.5107 
 406   0.0000       1.049362        28.5546 
 407   0.0000       1.054483        28.6939 
 408   0.0000       1.063463        28.9383 
 409   0.0000       1.065035        28.9811 
 410   0.0000       1.073076        29.1999 
 411   0.0000       1.079670        29.3793 
 412   0.0000       1.082976        29.4693 
 413   0.0000       1.086708        29.5708 
 414   0.0000       1.089791        29.6547 
 415   0.0000       1.094937        29.7947 
 416   0.0000       1.101650        29.9774 
 417   0.0000       1.107090        30.1254 
 418   0.0000       1.112145        30.2630 
 419   0.0000       1.118335        30.4315 
 420   0.0000       1.126212        30.6458 
 421   0.0000       1.138491        30.9799 
 422   0.0000       1.145756        31.1776 
 423   0.0000       1.153282        31.3824 
 424   0.0000       1.156539        31.4710 
 425   0.0000       1.161997        31.6195 
 426   0.0000       1.164581        31.6899 
 427   0.0000       1.183359        32.2008 
 428   0.0000       1.183736        32.2111 
 429   0.0000       1.201109        32.6838 
 430   0.0000       1.212556        32.9953 
 431   0.0000       1.222170        33.2569 
 432   0.0000       1.230724        33.4897 
 433   0.0000       1.251682        34.0600 
 434   0.0000       1.256381        34.1879 
 435   0.0000       1.259687        34.2778 
 436   0.0000       1.265102        34.4252 
 437   0.0000       1.272845        34.6359 
 438   0.0000       1.275739        34.7146 
 439   0.0000       1.281902        34.8823 
 440   0.0000       1.284525        34.9537 
 441   0.0000       1.289044        35.0767 
 442   0.0000       1.294087        35.2139 
 443   0.0000       1.305457        35.5233 
 444   0.0000       1.307714        35.5847 
 445   0.0000       1.312856        35.7246 
 446   0.0000       1.318046        35.8658 
 447   0.0000       1.326860        36.1057 
 448   0.0000       1.328457        36.1491 
 449   0.0000       1.329585        36.1798 
 450   0.0000       1.343064        36.5466 
 451   0.0000       1.349592        36.7243 
 452   0.0000       1.353808        36.8390 
 453   0.0000       1.360393        37.0182 
 454   0.0000       1.361049        37.0360 
 455   0.0000       1.368885        37.2493 
 456   0.0000       1.372013        37.3344 
 457   0.0000       1.375514        37.4296 
 458   0.0000       1.383998        37.6605 
 459   0.0000       1.386946        37.7407 
 460   0.0000       1.389659        37.8145 
 461   0.0000       1.394003        37.9328 
 462   0.0000       1.398737        38.0616 
 463   0.0000       1.401331        38.1322 
 464   0.0000       1.404572        38.2203 
 465   0.0000       1.407578        38.3021 
 466   0.0000       1.414517        38.4910 
 467   0.0000       1.415993        38.5311 
 468   0.0000       1.417265        38.5657 
 469   0.0000       1.419290        38.6208 
 470   0.0000       1.428409        38.8690 
 471   0.0000       1.432253        38.9736 
 472   0.0000       1.434631        39.0383 
 473   0.0000       1.438741        39.1501 
 474   0.0000       1.443705        39.2852 
 475   0.0000       1.445691        39.3393 
 476   0.0000       1.450332        39.4656 
 477   0.0000       1.455011        39.5929 
 478   0.0000       1.457925        39.6722 
 479   0.0000       1.462886        39.8072 
 480   0.0000       1.469081        39.9757 
 481   0.0000       1.474870        40.1332 
 482   0.0000       1.479638        40.2630 
 483   0.0000       1.484230        40.3880 
 484   0.0000       1.489360        40.5276 
 485   0.0000       1.490851        40.5681 
 486   0.0000       1.495495        40.6945 
 487   0.0000       1.496700        40.7273 
 488   0.0000       1.506072        40.9823 
 489   0.0000       1.510603        41.1056 
 490   0.0000       1.517152        41.2838 
 491   0.0000       1.526091        41.5270 
 492   0.0000       1.529103        41.6090 
 493   0.0000       1.534018        41.7427 
 494   0.0000       1.544772        42.0354 
 495   0.0000       1.545161        42.0460 
 496   0.0000       1.561361        42.4868 
 497   0.0000       1.565341        42.5951 
 498   0.0000       1.568659        42.6854 
 499   0.0000       1.572057        42.7779 
 500   0.0000       1.580681        43.0125 
 501   0.0000       1.581772        43.0422 
 502   0.0000       1.590077        43.2682 
 503   0.0000       1.600028        43.5390 
 504   0.0000       1.607372        43.7388 
 505   0.0000       1.612733        43.8847 
 506   0.0000       1.619997        44.0824 
 507   0.0000       1.626773        44.2668 
 508   0.0000       1.630845        44.3775 
 509   0.0000       1.632620        44.4258 
 510   0.0000       1.637401        44.5560 
 511   0.0000       1.638701        44.5913 
 512   0.0000       1.653936        45.0059 
 513   0.0000       1.654705        45.0268 
 514   0.0000       1.658777        45.1376 
 515   0.0000       1.666389        45.3447 
 516   0.0000       1.669327        45.4247 
 517   0.0000       1.672994        45.5245 
 518   0.0000       1.683782        45.8180 
 519   0.0000       1.695680        46.1418 
 520   0.0000       1.705105        46.3983 
 521   0.0000       1.707725        46.4696 
 522   0.0000       1.713699        46.6321 
 523   0.0000       1.719471        46.7892 
 524   0.0000       1.727049        46.9954 
 525   0.0000       1.728770        47.0422 
 526   0.0000       1.734320        47.1932 
 527   0.0000       1.747727        47.5581 
 528   0.0000       1.756686        47.8019 
 529   0.0000       1.764409        48.0120 
 530   0.0000       1.766704        48.0745 
 531   0.0000       1.774068        48.2748 
 532   0.0000       1.778436        48.3937 
 533   0.0000       1.787803        48.6486 
 534   0.0000       1.792652        48.7805 
 535   0.0000       1.802968        49.0613 
 536   0.0000       1.810511        49.2665 
 537   0.0000       1.812917        49.3320 
 538   0.0000       1.814483        49.3746 
 539   0.0000       1.823888        49.6305 
 540   0.0000       1.829036        49.7706 
 541   0.0000       1.841392        50.1068 
 542   0.0000       1.844535        50.1923 
 543   0.0000       1.854083        50.4522 
 544   0.0000       1.856895        50.5287 
 545   0.0000       1.864434        50.7338 
 546   0.0000       1.870829        50.9078 
 547   0.0000       1.873193        50.9722 
 548   0.0000       1.878362        51.1128 
 549   0.0000       1.883377        51.2493 
 550   0.0000       1.896670        51.6110 
 551   0.0000       1.899308        51.6828 
 552   0.0000       1.906975        51.8914 
 553   0.0000       1.917283        52.1719 
 554   0.0000       1.921861        52.2965 
 555   0.0000       1.930832        52.5406 
 556   0.0000       1.937900        52.7329 
 557   0.0000       1.945507        52.9399 
 558   0.0000       1.955156        53.2025 
 559   0.0000       1.963670        53.4342 
 560   0.0000       1.970674        53.6248 
 561   0.0000       1.973376        53.6983 
 562   0.0000       1.983982        53.9869 
 563   0.0000       1.998166        54.3729 
 564   0.0000       2.006725        54.6058 
 565   0.0000       2.020731        54.9869 
 566   0.0000       2.028347        55.1941 
 567   0.0000       2.037995        55.4567 
[...]
      f0      :     0.006473  f :     0.068255
      f+1     :     0.006917
      f-1     :     0.007841
      f+2     :     0.010181
      f-2     :     0.013244
      f+3     :     0.010686
      f-3     :     0.012913
 32 H s       :     0.792681  s :     0.792681
      pz      :     0.017894  p :     0.059741
      px      :     0.022512
      py      :     0.019335
 33 H s       :     0.810180  s :     0.810180
      pz      :     0.036885  p :     0.059551
      px      :     0.010295
      py      :     0.012372
 34 O s       :     3.272315  s :     3.272315
      pz      :     1.629459  p :     4.454421
      px      :     1.505802
      py      :     1.319160
      dz2     :     0.014427  d :     0.100268
      dxz     :     0.010644
      dyz     :     0.021906
      dx2y2   :     0.026564
      dxy     :     0.026727
      f0      :     0.000377  f :     0.006002
      f+1     :     0.000467
      f-1     :     0.000950
      f+2     :     0.001090
      f-2     :     0.000916
      f+3     :     0.001318
      f-3     :     0.000884
 35 H s       :     0.801818  s :     0.801818
      pz      :     0.038304  p :     0.059695
      px      :     0.010321
      py      :     0.011069
 36 H s       :     0.795080  s :     0.795080
      pz      :     0.013355  p :     0.059557
      px      :     0.031808
      py      :     0.014394
 37 C s       :     2.802740  s :     2.802740
      pz      :     1.021721  p :     2.906251
      px      :     1.062873
      py      :     0.821657
      dz2     :     0.136820  d :     0.510052
      dxz     :     0.036868
      dyz     :     0.100394
      dx2y2   :     0.107384
      dxy     :     0.128587
      f0      :     0.006471  f :     0.067528
      f+1     :     0.003680
      f-1     :     0.011135
      f+2     :     0.014282
      f-2     :     0.008801
      f+3     :     0.011508
      f-3     :     0.011652
 38 C s       :     2.787685  s :     2.787685
      pz      :     1.049472  p :     2.972206
      px      :     0.902033
      py      :     1.020701
      dz2     :     0.100589  d :     0.459957
      dxz     :     0.077265
      dyz     :     0.040562
      dx2y2   :     0.131551
      dxy     :     0.109990
      f0      :     0.006341  f :     0.050998
      f+1     :     0.006610
      f-1     :     0.002482
      f+2     :     0.007340
      f-2     :     0.006583
      f+3     :     0.010855
      f-3     :     0.010787
 39 H s       :     0.809184  s :     0.809184
      pz      :     0.038069  p :     0.060497
      px      :     0.013811
      py      :     0.008618
 40 H s       :     0.794401  s :     0.794401
      pz      :     0.013371  p :     0.059486
      px      :     0.031051
      py      :     0.015065
 41 H s       :     0.790590  s :     0.790590
      pz      :     0.016029  p :     0.059483
      px      :     0.010169
      py      :     0.033286
 42 H s       :     0.790864  s :     0.790864
      pz      :     0.037019  p :     0.060633
      px      :     0.010760
      py      :     0.012855
 43 C s       :     2.789447  s :     2.789447
      pz      :     0.982654  p :     2.966633
      px      :     0.984374
      py      :     0.999606
      dz2     :     0.092686  d :     0.440423
      dxz     :     0.101781
      dyz     :     0.085002
      dx2y2   :     0.074893
      dxy     :     0.086061
      f0      :     0.009760  f :     0.051347
      f+1     :     0.006508
      f-1     :     0.006857
      f+2     :     0.008179
      f-2     :     0.007716
      f+3     :     0.008136
      f-3     :     0.004190
 44 C s       :     2.806319  s :     2.806319
      pz      :     1.016339  p :     2.912725
      px      :     0.892837
      py      :     1.003548
      dz2     :     0.089130  d :     0.512955
      dxz     :     0.097929
      dyz     :     0.094962
      dx2y2   :     0.082392
      dxy     :     0.148542
      f0      :     0.008840  f :     0.068989
      f+1     :     0.011604
      f-1     :     0.006363
      f+2     :     0.009651
      f-2     :     0.009061
      f+3     :     0.013006
      f-3     :     0.010464
 45 H s       :     0.791443  s :     0.791443
      pz      :     0.017403  p :     0.060482
      px      :     0.028502
      py      :     0.014577
 46 H s       :     0.791696  s :     0.791696
      pz      :     0.014400  p :     0.060767
      px      :     0.015841
      py      :     0.030527
 47 O s       :     3.270561  s :     3.270561
      pz      :     1.352788  p :     4.452337
      px      :     1.514953
      py      :     1.584595
      dz2     :     0.028776  d :     0.103358
      dxz     :     0.025100
      dyz     :     0.021609
      dx2y2   :     0.012287
      dxy     :     0.015587
      f0      :     0.001232  f :     0.006115
      f+1     :     0.001400
      f-1     :     0.001027
      f+2     :     0.000523
      f-2     :     0.000690
      f+3     :     0.000639
      f-3     :     0.000604
 48 H s       :     0.816432  s :     0.816432
      pz      :     0.013721  p :     0.058520
      px      :     0.023705
      py      :     0.021094
 49 H s       :     0.797482  s :     0.797482
      pz      :     0.022504  p :     0.059750
      px      :     0.013987
      py      :     0.023259
 50 C s       :     2.806478  s :     2.806478
      pz      :     0.813014  p :     2.908711
      px      :     1.055400
      py      :     1.040297
      dz2     :     0.136721  d :     0.511425
      dxz     :     0.091053
      dyz     :     0.140455
      dx2y2   :     0.067281
      dxy     :     0.075915
      f0      :     0.018405  f :     0.069334
      f+1     :     0.016169
      f-1     :     0.012520
      f+2     :     0.006787
      f-2     :     0.005573
      f+3     :     0.004381
      f-3     :     0.005499
 51 C s       :     2.806114  s :     2.806114
      pz      :     0.958303  p :     2.907112
      px      :     1.062816
      py      :     0.885993
      dz2     :     0.126063  d :     0.504247
      dxz     :     0.043294
      dyz     :     0.106190
      dx2y2   :     0.095543
      dxy     :     0.133158
      f0      :     0.005347  f :     0.068812
      f+1     :     0.004782
      f-1     :     0.014917
      f+2     :     0.012829
      f-2     :     0.012636
      f+3     :     0.009688
      f-3     :     0.008612
 52 H s       :     0.806486  s :     0.806486
      pz      :     0.009484  p :     0.059185
      px      :     0.030527
      py      :     0.019174
 53 H s       :     0.797386  s :     0.797386
      pz      :     0.018337  p :     0.059353
      px      :     0.012427
      py      :     0.028589
 54 O s       :     3.266856  s :     3.266856
      pz      :     1.534692  p :     4.461960
      px      :     1.637275
      py      :     1.289994
      dz2     :     0.018521  d :     0.100215
      dxz     :     0.008269
      dyz     :     0.029873
      dx2y2   :     0.021112
      dxy     :     0.022439
      f0      :     0.000602  f :     0.005956
      f+1     :     0.000199
      f-1     :     0.001426
      f+2     :     0.000802
      f-2     :     0.001111
      f+3     :     0.000859
      f-3     :     0.000956
 55 H s       :     0.796371  s :     0.796371
      pz      :     0.035337  p :     0.059639
      px      :     0.013077
      py      :     0.011226
 56 H s       :     0.805433  s :     0.805433
      pz      :     0.011139  p :     0.059553
      px      :     0.031044
      py      :     0.017370
 57 C s       :     2.804337  s :     2.804337
      pz      :     1.040015  p :     2.908756
      px      :     1.006215
      py      :     0.862526
      dz2     :     0.106822  d :     0.507920
      dxz     :     0.041747
      dyz     :     0.087432
      dx2y2   :     0.151727
      dxy     :     0.120193
      f0      :     0.007704  f :     0.068930
      f+1     :     0.002927
      f-1     :     0.007697
      f+2     :     0.010360
      f-2     :     0.012245
      f+3     :     0.012266
      f-3     :     0.015731
 58 C s       :     2.790972  s :     2.790972
      pz      :     0.874415  p :     2.963300
      px      :     1.050820
      py      :     1.038065
      dz2     :     0.114630  d :     0.457690
      dxz     :     0.090462
      dyz     :     0.125748
      dx2y2   :     0.066750
      dxy     :     0.060100
      f0      :     0.011501  f :     0.051656
      f+1     :     0.008356
      f-1     :     0.013541
      f+2     :     0.005140
      f-2     :     0.004700
      f+3     :     0.004700
      f-3     :     0.003719
 59 H s       :     0.816139  s :     0.816139
      pz      :     0.015437  p :     0.059343
      px      :     0.034244
      py      :     0.009662
 60 H s       :     0.796017  s :     0.796017
      pz      :     0.038597  p :     0.059891
      px      :     0.012060
      py      :     0.009235
 61 H s       :     0.793196  s :     0.793196
      pz      :     0.013875  p :     0.059858
      px      :     0.016664
      py      :     0.029319
 62 H s       :     0.793619  s :     0.793619
      pz      :     0.013867  p :     0.059939
      px      :     0.032902
      py      :     0.013170


                      *****************************
                      * MAYER POPULATION ANALYSIS *
                      *****************************

  NA   - Mulliken gross atomic population
  ZA   - Total nuclear charge
  QA   - Mulliken gross atomic charge
  VA   - Mayer's total valence
  BVA  - Mayer's bonded valence
  FA   - Mayer's free valence

  ATOM       NA         ZA         QA         VA         BVA        FA
  0 Pb    20.8169    22.0000     1.1831     1.5306     1.5306    -0.0000
  1 N      7.2449     7.0000    -0.2449     2.8665     2.8665    -0.0000
  2 N      7.2385     7.0000    -0.2385     2.8568     2.8568    -0.0000
  3 C      6.1391     6.0000    -0.1391     3.8536     3.8536    -0.0000
  4 C      6.0488     6.0000    -0.0488     3.8332     3.8332    -0.0000
  5 H      0.8810     1.0000     0.1190     0.9862     0.9862    -0.0000
  6 H      0.8399     1.0000     0.1601     0.9648     0.9648     0.0000
  7 O      8.3836     8.0000    -0.3836     1.9424     1.9424    -0.0000
  8 H      0.8504     1.0000     0.1496     0.9642     0.9642     0.0000
  9 H      0.8777     1.0000     0.1223     0.9690     0.9690    -0.0000
 10 C      6.0385     6.0000    -0.0385     3.8521     3.8521    -0.0000
 11 C      6.0370     6.0000    -0.0370     3.8488     3.8488    -0.0000
 12 H      0.8564     1.0000     0.1436     0.9639     0.9639    -0.0000
 13 H      0.8729     1.0000     0.1271     0.9703     0.9703    -0.0000
 14 O      8.3806     8.0000    -0.3806     1.9232     1.9232    -0.0000
 15 H      0.8723     1.0000     0.1277     0.9699     0.9699    -0.0000
 16 H      0.8534     1.0000     0.1466     0.9635     0.9635    -0.0000
 17 C      6.0933     6.0000    -0.0933     3.8535     3.8535    -0.0000
 18 C      6.1339     6.0000    -0.1339     3.8445     3.8445    -0.0000
 19 H      0.8644     1.0000     0.1356     0.9585     0.9585     0.0000
 20 H      0.8463     1.0000     0.1537     0.9656     0.9656    -0.0000
 21 H      0.8471     1.0000     0.1529     0.9697     0.9697    -0.0000
 22 H      0.8676     1.0000     0.1324     0.9781     0.9781     0.0000
 23 C      6.2030     6.0000    -0.2030     3.8409     3.8409    -0.0000
 24 C      6.0033     6.0000    -0.0033     3.7538     3.7538    -0.0000
 25 H      0.8501     1.0000     0.1499     0.9754     0.9754    -0.0000
 26 H      0.8510     1.0000     0.1490     0.9646     0.9646    -0.0000
 27 O      8.3878     8.0000    -0.3878     1.9266     1.9266    -0.0000
 28 H      0.8781     1.0000     0.1219     0.9845     0.9845    -0.0000
 29 H      0.8425     1.0000     0.1575     0.9669     0.9669    -0.0000
 30 C      6.0554     6.0000    -0.0554     3.8596     3.8596    -0.0000
 31 C      6.0333     6.0000    -0.0333     3.8559     3.8559     0.0000
 32 H      0.8461     1.0000     0.1539     0.9669     0.9669     0.0000
 33 H      0.8765     1.0000     0.1235     0.9655     0.9655     0.0000
 34 O      8.3828     8.0000    -0.3828     1.9498     1.9498    -0.0000
 35 H      0.8661     1.0000     0.1339     0.9728     0.9728     0.0000
 36 H      0.8529     1.0000     0.1471     0.9637     0.9637     0.0000
 37 C      6.1117     6.0000    -0.1117     3.8780     3.8780    -0.0000
 38 C      6.1083     6.0000    -0.1083     3.7925     3.7925    -0.0000
 39 H      0.8564     1.0000     0.1436     0.9603     0.9603    -0.0000
 40 H      0.8459     1.0000     0.1541     0.9646     0.9646    -0.0000
 41 H      0.8462     1.0000     0.1538     0.9665     0.9665     0.0000
 42 H      0.8486     1.0000     0.1514     0.9835     0.9835    -0.0000
 43 C      6.1713     6.0000    -0.1713     3.8605     3.8605    -0.0000
 44 C      6.0508     6.0000    -0.0508     3.7992     3.7992    -0.0000
 45 H      0.8476     1.0000     0.1524     0.9723     0.9723    -0.0000
 46 H      0.8497     1.0000     0.1503     0.9722     0.9722    -0.0000
 47 O      8.3764     8.0000    -0.3764     1.9121     1.9121     0.0000
 48 H      0.8788     1.0000     0.1212     0.9675     0.9675    -0.0000
 49 H      0.8431     1.0000     0.1569     0.9671     0.9671    -0.0000
 50 C      6.0455     6.0000    -0.0455     3.8652     3.8652    -0.0000
 51 C      6.0378     6.0000    -0.0378     3.8434     3.8434     0.0000
 52 H      0.8738     1.0000     0.1262     0.9690     0.9690     0.0000
 53 H      0.8554     1.0000     0.1446     0.9648     0.9648     0.0000
 54 O      8.3861     8.0000    -0.3861     1.9248     1.9248     0.0000
 55 H      0.8554     1.0000     0.1446     0.9682     0.9682    -0.0000
 56 H      0.8684     1.0000     0.1316     0.9667     0.9667     0.0000
 57 C      6.0536     6.0000    -0.0536     3.7993     3.7993     0.0000
 58 C      6.1312     6.0000    -0.1312     3.8267     3.8267    -0.0000
 59 H      0.8850     1.0000     0.1150     0.9742     0.9742    -0.0000
 60 H      0.8461     1.0000     0.1539     0.9714     0.9714     0.0000
 61 H      0.8477     1.0000     0.1523     0.9681     0.9681    -0.0000
 62 H      0.8659     1.0000     0.1341     0.9805     0.9805    -0.0000

  Mayer bond orders larger than 0.100000
B(  0-Pb,  1-N ) :   0.2279 B(  0-Pb,  2-N ) :   0.1976 B(  0-Pb,  7-O ) :   0.1536 
B(  0-Pb, 14-O ) :   0.1426 B(  0-Pb, 27-O ) :   0.1826 B(  0-Pb, 34-O ) :   0.1913 
B(  0-Pb, 47-O ) :   0.1378 B(  0-Pb, 54-O ) :   0.1583 B(  1-N ,  3-C ) :   0.9109 
B(  1-N , 38-C ) :   0.8895 B(  1-N , 43-C ) :   0.8943 B(  2-N , 18-C ) :   0.9243 
B(  2-N , 23-C ) :   0.8837 B(  2-N , 58-C ) :   0.9182 B(  3-C ,  4-C ) :   0.9904 
B(  3-C ,  5-H ) :   0.9574 B(  3-C ,  6-H ) :   0.9545 B(  4-C ,  7-O ) :   0.9097 
B(  4-C ,  8-H ) :   0.9564 B(  4-C ,  9-H ) :   0.9619 B(  7-O , 10-C ) :   0.9161 
B( 10-C , 11-C ) :   1.0080 B( 10-C , 12-H ) :   0.9496 B( 10-C , 13-H ) :   0.9598 
B( 11-C , 14-O ) :   0.9104 B( 11-C , 15-H ) :   0.9562 B( 11-C , 16-H ) :   0.9518 
B( 14-O , 17-C ) :   0.8985 B( 17-C , 18-C ) :   0.9806 B( 17-C , 19-H ) :   0.9769 
B( 17-C , 20-H ) :   0.9523 B( 18-C , 21-H ) :   0.9573 B( 18-C , 22-H ) :   0.9596 
B( 23-C , 24-C ) :   0.9544 B( 23-C , 25-H ) :   0.9450 B( 23-C , 26-H ) :   0.9706 
B( 24-C , 27-O ) :   0.8489 B( 24-C , 28-H ) :   0.9680 B( 24-C , 29-H ) :   0.9778 
B( 27-O , 30-C ) :   0.9001 B( 30-C , 31-C ) :   1.0103 B( 30-C , 32-H ) :   0.9483 
B( 30-C , 33-H ) :   0.9565 B( 31-C , 34-O ) :   0.9133 B( 31-C , 35-H ) :   0.9598 
B( 31-C , 36-H ) :   0.9503 B( 34-O , 37-C ) :   0.8905 B( 37-C , 38-C ) :   0.9954 
B( 37-C , 39-H ) :   0.9701 B( 37-C , 40-H ) :   0.9568 B( 38-C , 41-H ) :   0.9496 
B( 38-C , 42-H ) :   0.9550 B( 43-C , 44-C ) :   0.9733 B( 43-C , 45-H ) :   0.9699 
B( 43-C , 46-H ) :   0.9539 B( 44-C , 47-O ) :   0.8697 B( 44-C , 48-H ) :   0.9680 
B( 44-C , 49-H ) :   0.9641 B( 47-O , 50-C ) :   0.9202 B( 50-C , 51-C ) :   1.0009 
B( 50-C , 52-H ) :   0.9621 B( 50-C , 53-H ) :   0.9494 B( 51-C , 54-O ) :   0.8970 
B( 51-C , 55-H ) :   0.9544 B( 51-C , 56-H ) :   0.9592 B( 54-O , 57-C ) :   0.8809 
B( 57-C , 58-C ) :   0.9656 B( 57-C , 59-H ) :   0.9625 B( 57-C , 60-H ) :   0.9685 
B( 58-C , 61-H ) :   0.9602 B( 58-C , 62-H ) :   0.9643 

-------
TIMINGS
-------

Total SCF time: 0 days 0 hours 3 min 16 sec 

Total time                  ....     196.287 sec
Sum of individual times     ....     175.692 sec  ( 89.5%)

Fock matrix formation       ....     150.710 sec  ( 76.8%)
  Split-RI-J                ....      10.367 sec  (  6.9% of F)
  Chain of spheres X        ....      80.086 sec  ( 53.1% of F)
  XC integration            ....      48.216 sec  ( 32.0% of F)
    Basis function eval.    ....       1.259 sec  (  2.6% of XC)
    Density eval.           ....       3.145 sec  (  6.5% of XC)
    XC-Functional eval.     ....       0.136 sec  (  0.3% of XC)
    XC-Potential eval.      ....       1.817 sec  (  3.8% of XC)
Diagonalization             ....       2.679 sec  (  1.4%)
Density matrix formation    ....       0.220 sec  (  0.1%)
Population analysis         ....       1.084 sec  (  0.6%)
Initial guess               ....       5.297 sec  (  2.7%)
Orbital Transformation      ....       0.000 sec  (  0.0%)
Orbital Orthonormalization  ....       0.000 sec  (  0.0%)
DIIS solution               ....       3.037 sec  (  1.5%)
SOSCF solution              ....       1.423 sec  (  0.7%)
Grid generation             ....      11.242 sec  (  5.7%)

Maximum memory used throughout the entire SCF-calculation: 274.7 MB

-------------------------   --------------------
FINAL SINGLE POINT ENERGY     -1460.521683325279
-------------------------   --------------------


                            ***************************************
                            *     ORCA property calculations      *
                            ***************************************

                                    ---------------------
                                    Active property flags
                                    ---------------------
   (+) Dipole Moment


------------------------------------------------------------------------------
                       ORCA ELECTRIC PROPERTIES CALCULATION
------------------------------------------------------------------------------

Dipole Moment Calculation                       ... on
Quadrupole Moment Calculation                   ... off
Polarizability Calculation                      ... off
GBWName                                         ... Pb_complex_large_mk.orca.gbw
Electron density                                ... Pb_complex_large_mk.orca.scfp
The origin for moment calculation is the CENTER OF MASS  = (-3.262182,  0.573225 -2.705881)

-------------
DIPOLE MOMENT
-------------
                                X             Y             Z
Electronic contribution:     10.24125       5.33660      -1.12228
Nuclear contribution   :    -10.45643      -5.50260       1.08773
                        -----------------------------------------
Total Dipole Moment    :     -0.21519      -0.16601      -0.03455
                        -----------------------------------------
Magnitude (a.u.)       :      0.27396
Magnitude (Debye)      :      0.69636



--------------------
Rotational spectrum 
--------------------
 
Rotational constants in cm-1:     0.007045     0.005483     0.004890 
Rotational constants in MHz :   211.206458   164.375764   146.598464 

 Dipole components along the rotational axes: 
x,y,z [a.u.] :     0.197680     0.076708    -0.173480 
x,y,z [Debye]:     0.502462     0.194975    -0.440952 

 

Timings for individual modules:

Sum of individual times         ...      212.365 sec (=   3.539 min)
GTO integral calculation        ...       12.349 sec (=   0.206 min)   5.8 %
SCF iterations                  ...      200.016 sec (=   3.334 min)  94.2 %
                             ****ORCA TERMINATED NORMALLY****
TOTAL RUN TIME: 0 days 0 hours 3 minutes 40 seconds 329 msec
