
                                 *****************
                                 * O   R   C   A *
                                 *****************

                                            #,                                       
                                            ###                                      
                                            ####                                     
                                            #####                                    
                                            ######                                   
                                           ########,                                 
                                     ,,################,,,,,                         
                               ,,#################################,,                 
                          ,,##########################################,,             
                       ,#########################################, ''#####,          
                    ,#############################################,,   '####,        
                  ,##################################################,,,,####,       
                ,###########''''           ''''###############################       
              ,#####''   ,,,,##########,,,,          '''####'''          '####       
            ,##' ,,,,###########################,,,                        '##       
           ' ,,###''''                  '''############,,,                           
         ,,##''                                '''############,,,,        ,,,,,,###''
      ,#''                                            '''#######################'''  
     '                                                          ''''####''''         
             ,#######,   #######,   ,#######,      ##                                
            ,#'     '#,  ##    ##  ,#'     '#,    #''#        ######   ,####,        
            ##       ##  ##   ,#'  ##            #'  '#       #        #'  '#        
            ##       ##  #######   ##           ,######,      #####,   #    #        
            '#,     ,#'  ##    ##  '#,     ,#' ,#      #,         ##   #,  ,#        
             '#######'   ##     ##  '#######'  #'      '#     #####' # '####'        



                  #######################################################
                  #                        -***-                        #
                  #          Department of theory and spectroscopy      #
                  #    Directorship and core code : Frank Neese         #
                  #        Max Planck Institute fuer Kohlenforschung    #
                  #                Kaiser Wilhelm Platz 1               #
                  #                 D-45470 Muelheim/Ruhr               #
                  #                      Germany                        #
                  #                                                     #
                  #                  All rights reserved                #
                  #                        -***-                        #
                  #######################################################


                         Program Version 5.0.2 -  RELEASE  -


 With contributions from (in alphabetic order):
   Daniel Aravena         : Magnetic Suceptibility
   Michael Atanasov       : Ab Initio Ligand Field Theory (pilot matlab implementation)
   Alexander A. Auer      : GIAO ZORA, VPT2 properties, NMR spectrum
   Ute Becker             : Parallelization
   Giovanni Bistoni       : ED, misc. LED, open-shell LED, HFLD
   Martin Brehm           : Molecular dynamics
   Dmytro Bykov           : SCF Hessian
   Vijay G. Chilkuri      : MRCI spin determinant printing, contributions to CSF-ICE
   Dipayan Datta          : RHF DLPNO-CCSD density
   Achintya Kumar Dutta   : EOM-CC, STEOM-CC
   Dmitry Ganyushin       : Spin-Orbit,Spin-Spin,Magnetic field MRCI
   Miquel Garcia          : C-PCM and meta-GGA Hessian, CC/C-PCM, Gaussian charge scheme
   Yang Guo               : DLPNO-NEVPT2, F12-NEVPT2, CIM, IAO-localization
   Andreas Hansen         : Spin unrestricted coupled pair/coupled cluster methods
   Benjamin Helmich-Paris : MC-RPA, TRAH-SCF, COSX integrals
   Lee Huntington         : MR-EOM, pCC
   Robert Izsak           : Overlap fitted RIJCOSX, COSX-SCS-MP3, EOM
   Marcus Kettner         : VPT2
   Christian Kollmar      : KDIIS, OOCD, Brueckner-CCSD(T), CCSD density, CASPT2, CASPT2-K
   Simone Kossmann        : Meta GGA functionals, TD-DFT gradient, OOMP2, MP2 Hessian
   Martin Krupicka        : Initial AUTO-CI
   Lucas Lang             : DCDCAS
   Marvin Lechner         : AUTO-CI (C++ implementation), FIC-MRCC
   Dagmar Lenk            : GEPOL surface, SMD
   Dimitrios Liakos       : Extrapolation schemes; Compound Job, initial MDCI parallelization
   Dimitrios Manganas     : Further ROCIS development; embedding schemes
   Dimitrios Pantazis     : SARC Basis sets
   Anastasios Papadopoulos: AUTO-CI, single reference methods and gradients
   Taras Petrenko         : DFT Hessian,TD-DFT gradient, ASA, ECA, R-Raman, ABS, FL, XAS/XES, NRVS
   Peter Pinski           : DLPNO-MP2, DLPNO-MP2 Gradient
   Christoph Reimann      : Effective Core Potentials
   Marius Retegan         : Local ZFS, SOC
   Christoph Riplinger    : Optimizer, TS searches, QM/MM, DLPNO-CCSD(T), (RO)-DLPNO pert. Triples
   Tobias Risthaus        : Range-separated hybrids, TD-DFT gradient, RPA, STAB
   Michael Roemelt        : Original ROCIS implementation
   Masaaki Saitow         : Open-shell DLPNO-CCSD energy and density
   Barbara Sandhoefer     : DKH picture change effects
   Avijit Sen             : IP-ROCIS
   Kantharuban Sivalingam : CASSCF convergence, NEVPT2, FIC-MRCI
   Bernardo de Souza      : ESD, SOC TD-DFT
   Georgi Stoychev        : AutoAux, RI-MP2 NMR, DLPNO-MP2 response
   Willem Van den Heuvel  : Paramagnetic NMR
   Boris Wezisla          : Elementary symmetry handling
   Frank Wennmohs         : Technical directorship


 We gratefully acknowledge several colleagues who have allowed us to
 interface, adapt or use parts of their codes:
   Stefan Grimme, W. Hujo, H. Kruse, P. Pracht,  : VdW corrections, initial TS optimization,
                  C. Bannwarth, S. Ehlert          DFT functionals, gCP, sTDA/sTD-DF
   Ed Valeev, F. Pavosevic, A. Kumar             : LibInt (2-el integral package), F12 methods
   Garnet Chan, S. Sharma, J. Yang, R. Olivares  : DMRG
   Ulf Ekstrom                                   : XCFun DFT Library
   Mihaly Kallay                                 : mrcc  (arbitrary order and MRCC methods)
   Jiri Pittner, Ondrej Demel                    : Mk-CCSD
   Frank Weinhold                                : gennbo (NPA and NBO analysis)
   Christopher J. Cramer and Donald G. Truhlar   : smd solvation model
   Lars Goerigk                                  : TD-DFT with DH, B97 family of functionals
   V. Asgeirsson, H. Jonsson                     : NEB implementation
   FAccTs GmbH                                   : IRC, NEB, NEB-TS, DLPNO-Multilevel, CI-OPT
                                                   MM, QMMM, 2- and 3-layer-ONIOM, Crystal-QMMM,
                                                   LR-CPCM, SF, NACMEs, symmetry and pop. for TD-DFT,
                                                   nearIR, NL-DFT gradient (VV10), updates on ESD,
                                                   ML-optimized integration grids
   S Lehtola, MJT Oliveira, MAL Marques          : LibXC Library
   Liviu Ungur et al                             : ANISO software


 Your calculation uses the libint2 library for the computation of 2-el integrals
 For citations please refer to: http://libint.valeyev.net

 Your ORCA version has been built with support for libXC version: 5.1.0
 For citations please refer to: https://tddft.org/programs/libxc/

 This ORCA versions uses:
   CBLAS   interface :  Fast vector & matrix operations
   LAPACKE interface :  Fast linear algebra routines
   SCALAPACK package :  Parallel linear algebra routines
   Shared memory     :  Shared parallel matrices
   BLAS/LAPACK       :  OpenBLAS 0.3.15  USE64BITINT DYNAMIC_ARCH NO_AFFINITY Prescott SINGLE_THREADED
        Core in use  :  Prescott
   Copyright (c) 2011-2014, The OpenBLAS Project


================================================================================

cite the ECPs for K  [HayWadt] as follows:
H  - Ne: T. H. Dunning Jr. and P. J. Hay, Methods El. Str. Th. Vol. 2, PLENUM PRESS (1977)
Na - Hg: P. J. Hay and W. R. Wadt, J. Chem. Phys. 82, 270 (1985)
P. J. Hay and W. R. Wadt, J. Chem. Phys. 82, 284 (1985)
P. J. Hay and W. R. Wadt, J. Chem. Phys. 82, 299 (1985)


ECP parameters for K  [HayWadt] have been obtained from:
LANL2DZ ECP  EMSL  Basis Set Exchange Library   5/31/16 12:35 AM

----- Orbital basis set information -----
Your calculation utilizes the basis: LANL2DZ 
   H - Ne   : T. H. Dunning Jr. and P. J. Hay, Methods of Electronic Structure Theory, Vol. 2, ed. H. F. Schaefer III, Plenum Press (1977).
   Na - Hg  : P. J. Hay and W. R. Wadt, J. Chem. Phys. 82, 270 (1985).
              P. J. Hay and W. R. Wadt, J. Chem. Phys. 82, 284 (1985).
              P. J. Hay and W. R. Wadt, J. Chem. Phys. 82, 299 (1985).

----- AuxJ basis set information -----
Your calculation utilizes the auxiliary basis: def2/J
   F. Weigend, Phys. Chem. Chem. Phys. 8, 1057 (2006).

================================================================================
                                        WARNINGS
                       Please study these warnings very carefully!
================================================================================


WARNING: Geometry Optimization
  ===> : Switching off AutoStart
         For restart on a previous wavefunction, please use MOREAD

INFO   : the flag for use of the SHARK integral package has been found!

================================================================================
                                       INPUT FILE
================================================================================
NAME = Kcryptand_small_opt.orca
|  1> ! B3LYP lanl2dz OPT
|  2> 
|  3> %pal
|  4> nprocs 16
|  5> end
|  6> 
|  7> %maxcore 8192
|  8> 
|  9> * xyz 1 1
| 10> K  -1.61800000  0.29000000  -1.37300000
| 11> N  -1.27800000  2.99700000  -0.49400000
| 12> N  -2.29000000  -2.40700000  -2.49800000
| 13> C  -0.74200000  2.86600000  0.86500000
| 14> C  0.44100000  1.92300000  1.01500000
| 15> H  -1.54200000  2.49300000  1.52100000
| 16> H  -0.43500000  3.85500000  1.27200000
| 17> O  0.05200000  0.58600000  0.75800000
| 18> H  0.82700000  2.01400000  2.04900000
| 19> H  1.27400000  2.20400000  0.34400000
| 20> C  1.12500000  -0.33400000  0.80700000
| 21> C  0.60800000  -1.73900000  0.59200000
| 22> H  1.63300000  -0.28800000  1.79000000
| 23> H  1.87300000  -0.08800000  0.02700000
| 24> O  0.01200000  -1.82500000  -0.68900000
| 25> H  -0.13000000  -1.99700000  1.37600000
| 26> H  1.45700000  -2.44300000  0.68100000
| 27> C  -0.29100000  -3.13700000  -1.11900000
| 28> C  -0.99600000  -3.09000000  -2.46400000
| 29> H  -0.90300000  -3.66300000  -0.36200000
| 30> H  0.63900000  -3.72500000  -1.23900000
| 31> H  -1.09000000  -4.13900000  -2.82600000
| 32> H  -0.32000000  -2.57700000  -3.16700000
| 33> C  -3.32200000  -3.02100000  -1.65600000
| 34> C  -3.47000000  -2.42200000  -0.25300000
| 35> H  -3.16000000  -4.11300000  -1.53500000
| 36> H  -4.28900000  -2.92400000  -2.17200000
| 37> O  -3.68900000  -1.02600000  -0.21800000
| 38> H  -2.56000000  -2.57800000  0.34200000
| 39> H  -4.29400000  -2.95400000  0.26200000
| 40> C  -4.89300000  -0.53700000  -0.77200000
| 41> C  -5.05400000  0.89600000  -0.30900000
| 42> H  -5.76000000  -1.12700000  -0.41800000
| 43> H  -4.87400000  -0.58100000  -1.87800000
| 44> O  -3.94200000  1.66400000  -0.73700000
| 45> H  -5.11100000  0.90400000  0.79600000
| 46> H  -5.99700000  1.31800000  -0.70700000
| 47> C  -3.75500000  2.83900000  0.02600000
| 48> C  -2.58800000  3.65600000  -0.50500000
| 49> H  -3.61100000  2.56600000  1.09000000
| 50> H  -4.65800000  3.47900000  -0.02500000
| 51> H  -2.56000000  4.60800000  0.06800000
| 52> H  -2.83000000  3.92900000  -1.54200000
| 53> C  -0.34500000  3.69300000  -1.38400000
| 54> C  -0.59500000  3.46100000  -2.86300000
| 55> H  0.67500000  3.34400000  -1.17100000
| 56> H  -0.35300000  4.78900000  -1.19600000
| 57> O  -0.34400000  2.10400000  -3.18700000
| 58> H  0.08000000  4.11900000  -3.44200000
| 59> H  -1.62700000  3.74500000  -3.14100000
| 60> C  -0.67200000  1.76100000  -4.52500000
| 61> C  -2.13400000  1.35100000  -4.66900000
| 62> H  -0.00800000  0.92900000  -4.81100000
| 63> H  -0.45200000  2.59900000  -5.21300000
| 64> O  -2.44400000  0.16400000  -3.96000000
| 65> H  -2.39100000  1.24100000  -5.74100000
| 66> H  -2.78900000  2.13000000  -4.25100000
| 67> C  -2.08400000  -1.04400000  -4.60500000
| 68> C  -2.73400000  -2.21200000  -3.88400000
| 69> H  -2.45000000  -1.03700000  -5.65000000
| 70> H  -0.98300000  -1.15700000  -4.64700000
| 71> H  -3.81700000  -2.02100000  -3.87600000
| 72> H  -2.57200000  -3.12500000  -4.49700000
| 73> **                         ****END OF INPUT****
================================================================================

                       *****************************
                       * Geometry Optimization Run *
                       *****************************

Geometry optimization settings:
Update method            Update   .... BFGS
Choice of coordinates    CoordSys .... Z-matrix Internals
Initial Hessian          InHess   .... Almoef's Model

Convergence Tolerances:
Energy Change            TolE     ....  5.0000e-06 Eh
Max. Gradient            TolMAXG  ....  3.0000e-04 Eh/bohr
RMS Gradient             TolRMSG  ....  1.0000e-04 Eh/bohr
Max. Displacement        TolMAXD  ....  4.0000e-03 bohr
RMS Displacement         TolRMSD  ....  2.0000e-03 bohr
Strict Convergence                ....  False
------------------------------------------------------------------------------
                        ORCA OPTIMIZATION COORDINATE SETUP
------------------------------------------------------------------------------

The optimization will be done in new redundant internal coordinates
Making redundant internal coordinates   ...  (new redundants) done
Evaluating the initial hessian          ...  (Almloef) done
Evaluating the coordinates              ...  done
Calculating the B-matrix                .... done
Calculating the G-matrix                .... done
Diagonalizing the G-matrix              .... done
The first mode is                       ....  387
The number of degrees of freedom        ....  183

    -----------------------------------------------------------------
                    Redundant Internal Coordinates


    -----------------------------------------------------------------
         Definition                    Initial Value    Approx d2E/dq
    -----------------------------------------------------------------
      1. B(N   1,K   0)                  2.8664         0.108572   
      2. B(N   2,K   0)                  2.9985         0.066821   
      3. B(C   3,N   1)                  1.4667         0.422119   
      4. B(C   4,C   3)                  1.5203         0.387161   
      5. B(H   5,C   3)                  1.0998         0.347422   
      6. B(H   6,C   3)                  1.1127         0.331334   
      7. B(O   7,K   0)                  2.7235         0.183483   
      8. B(O   7,C   4)                  1.4160         0.508698   
      9. B(H   8,C   4)                  1.1074         0.337747   
     10. B(H   9,C   4)                  1.1059         0.339626   
     11. B(C  10,O   7)                  1.4143         0.511883   
     12. B(C  11,C  10)                  1.5125         0.398437   
     13. B(H  12,C  10)                  1.1075         0.337727   
     14. B(H  13,C  10)                  1.1083         0.336636   
     15. B(O  14,K   0)                  2.7564         0.162593   
     16. B(O  14,C  11)                  1.4155         0.509600   
     17. B(H  15,C  11)                  1.1072         0.338066   
     18. B(H  16,C  11)                  1.1065         0.338923   
     19. B(C  17,O  14)                  1.4135         0.513266   
     20. B(C  18,C  17)                  1.5193         0.388558   
     21. B(C  18,N   2)                  1.4636         0.427047   
     22. B(H  19,C  17)                  1.1065         0.338962   
     23. B(H  20,C  17)                  1.1068         0.338526   
     24. B(H  21,C  18)                  1.1137         0.330099   
     25. B(H  22,C  18)                  1.1020         0.344599   
     26. B(C  23,N   2)                  1.4666         0.422307   
     27. B(C  24,C  23)                  1.5327         0.369912   
     28. B(H  25,C  23)                  1.1106         0.333900   
     29. B(H  26,C  23)                  1.1003         0.346675   
     30. B(O  27,C  24)                  1.4135         0.513300   
     31. B(O  27,K   0)                  2.7120         0.191432   
     32. B(H  28,C  24)                  1.0984         0.349170   
     33. B(H  29,C  24)                  1.1078         0.337304   
     34. B(C  30,O  27)                  1.4127         0.514870   
     35. B(C  31,C  30)                  1.5145         0.395431   
     36. B(H  32,C  30)                  1.1068         0.338492   
     37. B(H  33,C  30)                  1.1070         0.338252   
     38. B(O  34,C  31)                  1.4176         0.505665   
     39. B(O  34,K   0)                  2.7737         0.152612   
     40. B(H  35,C  31)                  1.1065         0.338923   
     41. B(H  36,C  31)                  1.1071         0.338137   
     42. B(C  37,O  34)                  1.4134         0.513460   
     43. B(C  38,C  37)                  1.5203         0.387114   
     44. B(C  38,N   1)                  1.4665         0.422562   
     45. B(H  39,C  37)                  1.1079         0.337228   
     46. B(H  40,C  37)                  1.1080         0.337089   
     47. B(H  41,C  38)                  1.1115         0.332761   
     48. B(H  42,C  38)                  1.0993         0.348004   
     49. B(C  43,N   1)                  1.4653         0.424417   
     50. B(C  44,C  43)                  1.5178         0.390676   
     51. B(H  45,C  43)                  1.0989         0.348523   
     52. B(H  46,C  43)                  1.1120         0.332098   
     53. B(O  47,C  44)                  1.4175         0.505747   
     54. B(O  47,K   0)                  2.8643         0.109398   
     55. B(H  48,C  44)                  1.1063         0.339209   
     56. B(H  49,C  44)                  1.1059         0.339697   
     57. B(C  50,O  47)                  1.4197         0.501800   
     58. B(C  51,C  50)                  1.5252         0.380200   
     59. B(H  52,C  50)                  1.1022         0.344276   
     60. B(H  53,C  50)                  1.1063         0.339120   
     61. B(O  54,C  51)                  1.4170         0.506847   
     62. B(O  54,K   0)                  2.7186         0.186852   
     63. B(H  55,C  51)                  1.1079         0.337244   
     64. B(H  56,C  51)                  1.1003         0.346770   
     65. B(C  57,O  54)                  1.4159         0.508731   
     66. B(C  58,C  57)                  1.5187         0.389355   
     67. B(C  58,N   2)                  1.4684         0.419581   
     68. B(H  59,C  57)                  1.1073         0.337973   
     69. B(H  60,C  57)                  1.1076         0.337579   
     70. B(H  61,C  58)                  1.0997         0.347440   
     71. B(H  62,C  58)                  1.1116         0.332670   
     72. A(O  34,K   0,O  47)          101.7807         0.347304   
     73. A(N   2,K   0,O  34)          110.1093         0.320032   
     74. A(O  14,K   0,O  54)          112.3487         0.384787   
     75. A(O  27,K   0,O  47)          156.4470         0.360900   
     76. A(N   2,K   0,O  47)          115.5756         0.303264   
     77. A(O  14,K   0,O  34)          144.9512         0.371541   
     78. A(N   2,K   0,O  14)           62.3213         0.323369   
     79. A(N   1,K   0,N   2)          172.3403         0.302897   
     80. A(O   7,K   0,O  34)          106.2908         0.379378   
     81. A(O  34,K   0,O  54)           89.2313         0.380576   
     82. A(N   2,K   0,O   7)          121.9199         0.329869   
     83. A(O  47,K   0,O  54)           64.0132         0.359413   
     84. A(N   1,K   0,O  27)          114.7242         0.360434   
     85. A(N   1,K   0,O   7)           65.4609         0.357841   
     86. A(O   7,K   0,O  47)           98.8569         0.358302   
     87. A(O  14,K   0,O  47)          112.3380         0.351034   
     88. A(N   1,K   0,O  54)          111.8160         0.358950   
     89. A(N   1,K   0,O  14)          125.3375         0.350585   
     90. A(O  14,K   0,O  27)           88.4851         0.386413   
     91. A(N   2,K   0,O  54)           62.1728         0.330863   
     92. A(O  27,K   0,O  54)           98.6710         0.395923   
     93. A(N   2,K   0,O  27)           63.3965         0.332193   
     94. A(O   7,K   0,O  27)          100.8218         0.394662   
     95. A(N   1,K   0,O  34)           63.9754         0.346861   
     96. A(O   7,K   0,O  14)           61.7473         0.383572   
     97. A(O   7,K   0,O  54)          159.3748         0.392991   
     98. A(O  27,K   0,O  34)           60.1908         0.382179   
     99. A(N   1,K   0,O  47)           62.8290         0.328146   
    100. A(C  38,N   1,C  43)          110.5361         0.374618   
    101. A(K   0,N   1,C  43)          109.7461         0.350256   
    102. A(K   0,N   1,C  38)          108.4293         0.349997   
    103. A(K   0,N   1,C   3)          104.0715         0.349935   
    104. A(C   3,N   1,C  43)          111.8708         0.374550   
    105. A(C   3,N   1,C  38)          111.9336         0.374267   
    106. A(C  18,N   2,C  58)          110.5630         0.374559   
    107. A(K   0,N   2,C  23)          108.5936         0.322810   
    108. A(C  18,N   2,C  23)          114.4199         0.374978   
    109. A(C  23,N   2,C  58)          112.6267         0.373839   
    110. A(K   0,N   2,C  58)          107.6052         0.322468   
    111. A(K   0,N   2,C  18)          102.2911         0.323402   
    112. A(N   1,C   3,H   6)          111.1224         0.324447   
    113. A(N   1,C   3,C   4)          115.5425         0.370994   
    114. A(C   4,C   3,H   6)          107.4906         0.321801   
    115. A(C   4,C   3,H   5)          107.2666         0.324312   
    116. A(N   1,C   3,H   5)          108.4901         0.326987   
    117. A(H   5,C   3,H   6)          106.4984         0.285471   
    118. A(C   3,C   4,H   9)          111.6319         0.323107   
    119. A(O   7,C   4,H   8)          110.0482         0.335670   
    120. A(C   3,C   4,H   8)          108.2026         0.322813   
    121. A(H   8,C   4,H   9)          106.4441         0.285315   
    122. A(C   3,C   4,O   7)          110.7326         0.383156   
    123. A(O   7,C   4,H   9)          109.6771         0.335980   
    124. A(K   0,O   7,C   4)          114.3991         0.395513   
    125. A(C   4,O   7,C  10)          113.5481         0.399771   
    126. A(K   0,O   7,C  10)          114.9372         0.395947   
    127. A(H  12,C  10,H  13)          107.8106         0.284920   
    128. A(C  11,C  10,H  13)          109.6842         0.324162   
    129. A(O   7,C  10,H  13)          110.0760         0.335835   
    130. A(C  11,C  10,H  12)          108.7573         0.324334   
    131. A(O   7,C  10,H  12)          110.5947         0.336016   
    132. A(O   7,C  10,C  11)          109.8786         0.385493   
    133. A(C  10,C  11,H  15)          110.0997         0.324388   
    134. A(C  10,C  11,O  14)          109.2091         0.385193   
    135. A(H  15,C  11,H  16)          107.8318         0.285265   
    136. A(O  14,C  11,H  16)          110.9289         0.335964   
    137. A(C  10,C  11,H  16)          108.5011         0.324523   
    138. A(O  14,C  11,H  15)          110.2435         0.335822   
    139. A(K   0,O  14,C  11)          115.2737         0.387361   
    140. A(C  11,O  14,C  17)          114.9580         0.400085   
    141. A(K   0,O  14,C  17)          120.6597         0.387846   
    142. A(H  19,C  17,H  20)          106.6411         0.285330   
    143. A(C  18,C  17,H  20)          108.0806         0.323126   
    144. A(O  14,C  17,H  20)          110.2407         0.336299   
    145. A(C  18,C  17,H  19)          111.3287         0.323194   
    146. A(O  14,C  17,H  19)          110.5903         0.336371   
    147. A(O  14,C  17,C  18)          109.8806         0.383993   
    148. A(H  21,C  18,H  22)          106.4337         0.284943   
    149. A(C  17,C  18,H  22)          107.1278         0.324070   
    150. A(N   2,C  18,H  22)          108.0773         0.327173   
    151. A(C  17,C  18,H  21)          107.3247         0.321794   
    152. A(N   2,C  18,H  21)          110.9396         0.324867   
    153. A(N   2,C  18,C  17)          116.4403         0.371966   
    154. A(H  25,C  23,H  26)          105.4245         0.285719   
    155. A(C  24,C  23,H  26)          108.0564         0.321784   
    156. A(N   2,C  23,H  26)          108.1952         0.326895   
    157. A(C  24,C  23,H  25)          107.3757         0.319814   
    158. A(N   2,C  23,H  25)          111.8118         0.324882   
    159. A(N   2,C  23,C  24)          115.4589         0.368128   
    160. A(C  23,C  24,O  27)          115.0624         0.380732   
    161. A(H  28,C  24,H  29)          107.2299         0.286491   
    162. A(O  27,C  24,H  29)          110.3363         0.336100   
    163. A(C  23,C  24,H  29)          108.0407         0.320345   
    164. A(O  27,C  24,H  28)          104.7863         0.338042   
    165. A(C  23,C  24,H  28)          111.1223         0.322162   
    166. A(C  24,O  27,C  30)          117.6586         0.400815   
    167. A(K   0,O  27,C  30)          108.4124         0.399316   
    168. A(K   0,O  27,C  24)          110.5107         0.399101   
    169. A(H  32,C  30,H  33)          108.1669         0.285232   
    170. A(C  31,C  30,H  33)          110.1727         0.324014   
    171. A(O  27,C  30,H  33)          111.3098         0.336428   
    172. A(C  31,C  30,H  32)          108.8633         0.324051   
    173. A(O  27,C  30,H  32)          110.9566         0.336468   
    174. A(O  27,C  30,C  31)          107.3515         0.385375   
    175. A(H  35,C  31,H  36)          108.2020         0.285274   
    176. A(O  34,C  31,H  36)          110.6771         0.335401   
    177. A(C  30,C  31,H  36)          109.9558         0.323996   
    178. A(O  34,C  31,H  35)          109.7554         0.335531   
    179. A(C  30,C  31,H  35)          108.5184         0.324119   
    180. A(C  30,C  31,O  34)          109.6891         0.384167   
    181. A(C  31,O  34,C  37)          113.0277         0.399566   
    182. A(K   0,O  34,C  37)          115.1339         0.383616   
    183. A(K   0,O  34,C  31)          117.2652         0.382598   
    184. A(H  39,C  37,H  40)          107.0065         0.284913   
    185. A(C  38,C  37,H  40)          107.4041         0.322703   
    186. A(O  34,C  37,H  40)          110.3356         0.336082   
    187. A(C  38,C  37,H  39)          111.5981         0.322725   
    188. A(O  34,C  37,H  39)          109.3170         0.336105   
    189. A(O  34,C  37,C  38)          111.0850         0.383769   
    190. A(H  41,C  38,H  42)          106.2094         0.285737   
    191. A(C  37,C  38,H  42)          107.0947         0.324395   
    192. A(N   1,C  38,H  42)          108.3806         0.327134   
    193. A(C  37,C  38,H  41)          107.4311         0.322021   
    194. A(N   1,C  38,H  41)          111.0098         0.324732   
    195. A(N   1,C  38,C  37)          116.2058         0.371053   
    196. A(H  45,C  43,H  46)          106.6737         0.285715   
    197. A(C  44,C  43,H  46)          108.3124         0.322399   
    198. A(N   1,C  43,H  46)          111.1544         0.324860   
    199. A(C  44,C  43,H  45)          107.0505         0.324963   
    200. A(N   1,C  43,H  45)          108.8106         0.327451   
    201. A(N   1,C  43,C  44)          114.4804         0.371918   
    202. A(H  48,C  44,H  49)          106.5636         0.285516   
    203. A(O  47,C  44,H  49)          110.7090         0.335667   
    204. A(C  43,C  44,H  49)          111.0639         0.323597   
    205. A(O  47,C  44,H  48)          109.9819         0.335587   
    206. A(C  43,C  44,H  48)          108.5772         0.323521   
    207. A(C  43,C  44,O  47)          109.8694         0.383371   
    208. A(K   0,O  47,C  44)          112.5044         0.361298   
    209. A(C  44,O  47,C  50)          113.9407         0.397967   
    210. A(K   0,O  47,C  50)          109.9441         0.360816   
    211. A(H  52,C  50,H  53)          106.8938         0.286101   
    212. A(C  51,C  50,H  53)          109.6038         0.322069   
    213. A(O  47,C  50,H  53)          110.9251         0.335135   
    214. A(C  51,C  50,H  52)          110.4897         0.322866   
    215. A(O  47,C  50,H  52)          106.7224         0.335977   
    216. A(O  47,C  50,C  51)          112.0485         0.381047   
    217. A(H  55,C  51,H  56)          107.4463         0.286175   
    218. A(O  54,C  51,H  56)          105.8294         0.336942   
    219. A(C  50,C  51,H  56)          110.1479         0.323248   
    220. A(O  54,C  51,H  55)          110.5025         0.335384   
    221. A(C  50,C  51,H  55)          109.9021         0.321776   
    222. A(C  50,C  51,O  54)          112.8090         0.381709   
    223. A(C  51,O  54,C  57)          115.5395         0.399080   
    224. A(K   0,O  54,C  57)          113.3140         0.396783   
    225. A(K   0,O  54,C  51)          111.7682         0.396524   
    226. A(H  59,C  57,H  60)          107.0639         0.285076   
    227. A(C  58,C  57,H  60)          111.4066         0.323086   
    228. A(O  54,C  57,H  60)          110.9193         0.335646   
    229. A(C  58,C  57,H  59)          108.1457         0.323148   
    230. A(O  54,C  57,H  59)          109.9061         0.335711   
    231. A(O  54,C  57,C  58)          109.3324         0.383537   
    232. A(H  61,C  58,H  62)          106.8690         0.285653   
    233. A(C  57,C  58,H  62)          107.9085         0.322311   
    234. A(N   2,C  58,H  62)          111.5546         0.324340   
    235. A(C  57,C  58,H  61)          106.9392         0.324616   
    236. A(N   2,C  58,H  61)          108.2985         0.326666   
    237. A(N   2,C  58,C  57)          114.8863         0.370969   
    238. D(C  43,N   1,K   0,O  47)    -13.4327         0.001522   
    239. D(C   3,N   1,K   0,O  34)    106.3009         0.001522   
    240. D(C   3,N   1,K   0,O  27)     72.7982         0.001522   
    241. D(C  38,N   1,K   0,O  27)    -46.5048         0.001522   
    242. D(C  38,N   1,K   0,O  47)    107.3961         0.001522   
    243. D(C   3,N   1,K   0,O  47)   -133.3009         0.001522   
    244. D(C   3,N   1,K   0,O   7)    -18.1761         0.001522   
    245. D(C  43,N   1,K   0,O   7)    101.6921         0.001522   
    246. D(C  43,N   1,K   0,O  54)    -56.0431         0.001522   
    247. D(C  38,N   1,K   0,O  54)     64.7857         0.001522   
    248. D(C   3,N   1,K   0,O  14)    -34.1076         0.001522   
    249. D(C  38,N   1,K   0,O  34)    -13.0021         0.001522   
    250. D(C  43,N   1,K   0,N   2)    -93.2961         0.001522   
    251. D(C   3,N   1,K   0,O  54)   -175.9112         0.001522   
    252. D(C  38,N   1,K   0,O  14)   -153.4106         0.001522   
    253. D(C  43,N   1,K   0,O  34)   -133.8310         0.001522   
    254. D(C  43,N   1,K   0,O  27)   -167.3337         0.001522   
    255. D(C  38,N   1,K   0,N   2)     27.5328         0.001522   
    256. D(C  38,N   1,K   0,O   7)   -137.4791         0.001522   
    257. D(C   3,N   1,K   0,N   2)    146.8358         0.001522   
    258. D(C  43,N   1,K   0,O  14)     85.7606         0.001522   
    259. D(C  18,N   2,K   0,O  27)   -127.6917         0.001509   
    260. D(C  23,N   2,K   0,O   7)     79.9181         0.001509   
    261. D(C  23,N   2,K   0,O  14)     96.8786         0.001509   
    262. D(C  18,N   2,K   0,O  54)    115.2417         0.001509   
    263. D(C  23,N   2,K   0,O  27)     -6.3785         0.001509   
    264. D(C  18,N   2,K   0,O  47)     78.5543         0.001509   
    265. D(C  23,N   2,K   0,N   1)    -83.9904         0.001509   
    266. D(C  23,N   2,K   0,O  54)   -123.4451         0.001509   
    267. D(C  18,N   2,K   0,O  14)    -24.4346         0.001509   
    268. D(C  58,N   2,K   0,O  47)    -37.9507         0.001509   
    269. D(C  58,N   2,K   0,O  54)     -1.2633         0.001509   
    270. D(C  58,N   2,K   0,O  34)     76.6485         0.001509   
    271. D(C  58,N   2,K   0,O   7)   -157.9000         0.001509   
    272. D(C  18,N   2,K   0,N   1)    154.6965         0.001509   
    273. D(C  58,N   2,K   0,O  27)    115.8034         0.001509   
    274. D(C  23,N   2,K   0,O  47)   -160.1326         0.001509   
    275. D(C  58,N   2,K   0,O  14)   -140.9395         0.001509   
    276. D(C  23,N   2,K   0,O  34)    -45.5334         0.001509   
    277. D(C  18,N   2,K   0,O  34)   -166.8465         0.001509   
    278. D(C  58,N   2,K   0,N   1)     38.1915         0.001509   
    279. D(C  18,N   2,K   0,O   7)    -41.3950         0.001509   
    280. D(H   6,C   3,N   1,K   0)    172.3280         0.016276   
    281. D(H   6,C   3,N   1,C  43)     53.9081         0.016276   
    282. D(H   6,C   3,N   1,C  38)    -70.7820         0.016276   
    283. D(H   5,C   3,N   1,C  43)    170.6645         0.016276   
    284. D(H   5,C   3,N   1,K   0)    -70.9155         0.016276   
    285. D(C   4,C   3,N   1,C  43)    -68.8923         0.016276   
    286. D(H   5,C   3,N   1,C  38)     45.9745         0.016276   
    287. D(C   4,C   3,N   1,K   0)     49.5277         0.016276   
    288. D(C   4,C   3,N   1,C  38)    166.4176         0.016276   
    289. D(H   9,C   4,C   3,H   6)    -68.6674         0.011925   
    290. D(H   8,C   4,C   3,H   5)    -66.0505         0.011925   
    291. D(O   7,C   4,C   3,H   5)     54.6350         0.011925   
    292. D(H   9,C   4,C   3,N   1)     56.0374         0.011925   
    293. D(H   9,C   4,C   3,H   5)    177.1433         0.011925   
    294. D(O   7,C   4,C   3,N   1)    -66.4709         0.011925   
    295. D(H   8,C   4,C   3,N   1)    172.8436         0.011925   
    296. D(H   8,C   4,C   3,H   6)     48.1389         0.011925   
    297. D(O   7,C   4,C   3,H   6)    168.8244         0.011925   
    298. D(C   4,O   7,K   0,O  14)    152.6540         0.001555   
    299. D(C   4,O   7,K   0,N   2)    169.7077         0.001555   
    300. D(C   4,O   7,K   0,N   1)    -12.6199         0.001555   
    301. D(C  10,O   7,C   4,H   9)     52.9837         0.022225   
    302. D(C  10,O   7,C   4,H   8)    -63.7936         0.022225   
    303. D(K   0,O   7,C   4,C   3)     41.9785         0.022225   
    304. D(C  10,O   7,C   4,C   3)    176.6235         0.022225   
    305. D(C  10,O   7,K   0,O  47)    -92.0179         0.001555   
    306. D(C  10,O   7,K   0,O  34)    162.8638         0.001555   
    307. D(K   0,O   7,C   4,H   8)    161.5613         0.022225   
    308. D(C  10,O   7,K   0,O  27)    100.9903         0.001555   
    309. D(C  10,O   7,K   0,O  14)     18.6494         0.001555   
    310. D(K   0,O   7,C   4,H   9)    -81.6614         0.022225   
    311. D(C  10,O   7,K   0,N   1)   -146.6245         0.001555   
    312. D(C   4,O   7,K   0,O  47)     41.9867         0.001555   
    313. D(C  10,O   7,K   0,O  54)    -59.6776         0.001555   
    314. D(C  10,O   7,K   0,N   2)     35.7031         0.001555   
    315. D(C   4,O   7,K   0,O  34)    -63.1316         0.001555   
    316. D(C   4,O   7,K   0,O  27)   -125.0051         0.001555   
    317. D(C   4,O   7,K   0,O  54)     74.3270         0.001555   
    318. D(C  11,C  10,O   7,K   0)    -48.4906         0.022516   
    319. D(H  12,C  10,O   7,C   4)     57.0398         0.022516   
    320. D(C  11,C  10,O   7,C   4)    177.1157         0.022516   
    321. D(H  13,C  10,O   7,C   4)    -61.9875         0.022516   
    322. D(H  13,C  10,O   7,K   0)     72.4063         0.022516   
    323. D(H  12,C  10,O   7,K   0)   -168.5665         0.022516   
    324. D(H  16,C  11,C  10,H  12)    -56.2431         0.012599   
    325. D(H  16,C  11,C  10,O   7)   -177.4286         0.012599   
    326. D(H  15,C  11,C  10,H  13)    179.2336         0.012599   
    327. D(H  15,C  11,C  10,H  12)     61.5516         0.012599   
    328. D(H  15,C  11,C  10,O   7)    -59.6339         0.012599   
    329. D(O  14,C  11,C  10,H  13)    -59.5900         0.012599   
    330. D(O  14,C  11,C  10,H  12)   -177.2720         0.012599   
    331. D(H  16,C  11,C  10,H  13)     61.4389         0.012599   
    332. D(O  14,C  11,C  10,O   7)     61.5425         0.012599   
    333. D(C  17,O  14,C  11,H  16)     49.2885         0.022307   
    334. D(C  17,O  14,C  11,H  15)    -70.0836         0.022307   
    335. D(C  17,O  14,C  11,C  10)    168.8275         0.022307   
    336. D(K   0,O  14,C  11,H  16)   -163.3872         0.022307   
    337. D(K   0,O  14,C  11,C  10)    -43.8482         0.022307   
    338. D(C  17,O  14,K   0,O  54)    -41.9696         0.001544   
    339. D(C  17,O  14,K   0,O  47)   -111.8945         0.001544   
    340. D(C  17,O  14,K   0,O  27)     56.7842         0.001544   
    341. D(C  17,O  14,K   0,N   2)     -3.7447         0.001544   
    342. D(C  11,O  14,K   0,O  54)    172.7115         0.001544   
    343. D(C  11,O  14,K   0,O  47)    102.7866         0.001544   
    344. D(C  11,O  14,K   0,O  34)    -63.1758         0.001544   
    345. D(C  17,O  14,K   0,N   1)    176.3973         0.001544   
    346. D(C  11,O  14,K   0,O  27)    -88.5347         0.001544   
    347. D(K   0,O  14,C  11,H  15)     77.2407         0.022307   
    348. D(C  11,O  14,K   0,O   7)     14.6113         0.001544   
    349. D(C  17,O  14,K   0,O  34)     82.1431         0.001544   
    350. D(C  11,O  14,K   0,N   2)   -149.0636         0.001544   
    351. D(C  11,O  14,K   0,N   1)     31.0784         0.001544   
    352. D(C  17,O  14,K   0,O   7)    159.9302         0.001544   
    353. D(H  20,C  17,O  14,C  11)    -64.2630         0.022643   
    354. D(H  20,C  17,O  14,K   0)    150.3159         0.022643   
    355. D(H  19,C  17,O  14,C  11)     53.4200         0.022643   
    356. D(H  19,C  17,O  14,K   0)    -92.0011         0.022643   
    357. D(C  18,C  17,O  14,K   0)     31.2981         0.022643   
    358. D(C  18,C  17,O  14,C  11)    176.7192         0.022643   
    359. D(H  21,C  18,N   2,C  23)     60.8012         0.016659   
    360. D(H  21,C  18,N   2,C  58)    -67.6322         0.016659   
    361. D(C  17,C  18,N   2,C  58)    169.2488         0.016659   
    362. D(H  21,C  18,N   2,K   0)    178.0153         0.016659   
    363. D(C  17,C  18,N   2,C  23)    -62.3178         0.016659   
    364. D(C  17,C  18,N   2,K   0)     54.8964         0.016659   
    365. D(H  22,C  18,C  17,H  19)   -178.6427         0.012007   
    366. D(H  22,C  18,C  17,O  14)     58.4923         0.012007   
    367. D(H  21,C  18,C  17,H  20)     52.1257         0.012007   
    368. D(H  21,C  18,C  17,H  19)    -64.6743         0.012007   
    369. D(N   2,C  18,C  17,H  20)    177.1010         0.012007   
    370. D(N   2,C  18,C  17,H  19)     60.3010         0.012007   
    371. D(H  21,C  18,C  17,O  14)    172.4607         0.012007   
    372. D(N   2,C  18,C  17,O  14)    -62.5640         0.012007   
    373. D(H  22,C  18,N   2,C  58)     48.6979         0.016659   
    374. D(H  22,C  18,N   2,C  23)    177.1312         0.016659   
    375. D(H  22,C  18,C  17,H  20)    -61.8428         0.012007   
    376. D(H  22,C  18,N   2,K   0)    -65.6546         0.016659   
    377. D(H  26,C  23,N   2,C  58)    -16.6292         0.016290   
    378. D(H  26,C  23,N   2,C  18)   -144.0134         0.016290   
    379. D(H  26,C  23,N   2,K   0)    102.4450         0.016290   
    380. D(H  25,C  23,N   2,C  58)     99.0354         0.016290   
    381. D(H  25,C  23,N   2,C  18)    -28.3489         0.016290   
    382. D(H  25,C  23,N   2,K   0)   -141.8904         0.016290   
    383. D(C  24,C  23,N   2,C  58)   -137.8170         0.016290   
    384. D(C  24,C  23,N   2,C  18)     94.7987         0.016290   
    385. D(C  24,C  23,N   2,K   0)    -18.7428         0.016290   
    386. D(H  29,C  24,C  23,H  26)     57.2287         0.010939   
    387. D(H  29,C  24,C  23,H  25)    -56.0457         0.010939   
    388. D(H  29,C  24,C  23,N   2)    178.4915         0.010939   
    389. D(H  28,C  24,C  23,N   2)    -64.1353         0.010939   
    390. D(O  27,C  24,C  23,H  26)    -66.5370         0.010939   
    391. D(O  27,C  24,C  23,H  25)   -179.8114         0.010939   
    392. D(H  28,C  24,C  23,H  26)    174.6019         0.010939   
    393. D(O  27,C  24,C  23,N   2)     54.7258         0.010939   
    394. D(H  28,C  24,C  23,H  25)     61.3275         0.010939   
    395. D(C  30,O  27,C  24,H  29)    -57.4605         0.022647   
    396. D(C  30,O  27,C  24,H  28)   -172.5824         0.022647   
    397. D(K   0,O  27,C  24,H  29)    177.3138         0.022647   
    398. D(K   0,O  27,C  24,H  28)     62.1919         0.022647   
    399. D(K   0,O  27,C  24,C  23)    -60.1436         0.022647   
    400. D(C  30,O  27,K   0,O  47)     -4.3658         0.001559   
    401. D(C  30,O  27,K   0,O  34)     39.1278         0.001559   
    402. D(C  30,O  27,K   0,O  14)   -157.3390         0.001559   
    403. D(C  30,O  27,K   0,O   7)    141.8149         0.001559   
    404. D(C  24,O  27,K   0,O  54)     85.3485         0.001559   
    405. D(C  24,O  27,K   0,O  47)    125.9422         0.001559   
    406. D(C  24,O  27,K   0,O  34)    169.4358         0.001559   
    407. D(C  30,O  27,K   0,O  54)    -44.9595         0.001559   
    408. D(C  30,O  27,K   0,N   1)     73.9929         0.001559   
    409. D(C  24,O  27,K   0,O  14)    -27.0310         0.001559   
    410. D(C  24,O  27,K   0,O   7)    -87.8772         0.001559   
    411. D(C  30,O  27,C  24,C  23)     65.0821         0.022647   
    412. D(C  24,O  27,K   0,N   2)     32.5412         0.001559   
    413. D(C  24,O  27,K   0,N   1)   -155.6991         0.001559   
    414. D(C  30,O  27,K   0,N   2)    -97.7668         0.001559   
    415. D(H  33,C  30,O  27,C  24)    -73.4287         0.022791   
    416. D(H  33,C  30,O  27,K   0)     52.8274         0.022791   
    417. D(H  32,C  30,O  27,C  24)     47.0868         0.022791   
    418. D(H  32,C  30,O  27,K   0)    173.3429         0.022791   
    419. D(C  31,C  30,O  27,C  24)    165.9282         0.022791   
    420. D(C  31,C  30,O  27,K   0)    -67.8156         0.022791   
    421. D(H  36,C  31,C  30,H  33)     59.5543         0.012417   
    422. D(H  36,C  31,C  30,H  32)    -58.9051         0.012417   
    423. D(H  36,C  31,C  30,O  27)   -179.0860         0.012417   
    424. D(H  35,C  31,C  30,H  33)    177.7243         0.012417   
    425. D(H  35,C  31,C  30,H  32)     59.2649         0.012417   
    426. D(H  35,C  31,C  30,O  27)    -60.9160         0.012417   
    427. D(O  34,C  31,C  30,H  33)    -62.3778         0.012417   
    428. D(O  34,C  31,C  30,H  32)    179.1628         0.012417   
    429. D(O  34,C  31,C  30,O  27)     58.9819         0.012417   
    430. D(C  37,O  34,C  31,H  36)     80.0860         0.021950   
    431. D(C  37,O  34,C  31,H  35)    -39.2743         0.021950   
    432. D(C  37,O  34,C  31,C  30)   -158.4141         0.021950   
    433. D(K   0,O  34,C  31,H  36)   -142.3313         0.021950   
    434. D(K   0,O  34,C  31,H  35)     98.3084         0.021950   
    435. D(C  37,O  34,K   0,O  54)   -131.3560         0.001539   
    436. D(C  37,O  34,K   0,O  47)    -68.1273         0.001539   
    437. D(C  37,O  34,K   0,O  27)    128.1897         0.001539   
    438. D(C  37,O  34,K   0,O  14)     98.6237         0.001539   
    439. D(C  37,O  34,K   0,O   7)     34.8644         0.001539   
    440. D(C  37,O  34,K   0,N   2)    168.7810         0.001539   
    441. D(C  37,O  34,K   0,N   1)    -16.5121         0.001539   
    442. D(C  31,O  34,K   0,O  54)     91.9347         0.001539   
    443. D(K   0,O  34,C  31,C  30)    -20.8314         0.021950   
    444. D(C  31,O  34,K   0,O  47)    155.1634         0.001539   
    445. D(C  31,O  34,K   0,O  27)     -8.5196         0.001539   
    446. D(C  31,O  34,K   0,O  14)    -38.0856         0.001539   
    447. D(C  31,O  34,K   0,O   7)   -101.8449         0.001539   
    448. D(C  31,O  34,K   0,N   2)     32.0717         0.001539   
    449. D(C  31,O  34,K   0,N   1)   -153.2214         0.001539   
    450. D(H  40,C  37,O  34,C  31)    -58.6928         0.022661   
    451. D(H  40,C  37,O  34,K   0)    162.7820         0.022661   
    452. D(H  39,C  37,O  34,C  31)     58.7229         0.022661   
    453. D(H  39,C  37,O  34,K   0)    -79.8024         0.022661   
    454. D(C  38,C  37,O  34,C  31)   -177.6908         0.022661   
    455. D(C  38,C  37,O  34,K   0)     43.7840         0.022661   
    456. D(H  42,C  38,C  37,H  40)    -60.1322         0.011922   
    457. D(H  42,C  38,C  37,O  34)     60.6106         0.011922   
    458. D(H  41,C  38,C  37,H  40)     53.6129         0.011922   
    459. D(H  41,C  38,C  37,H  39)    -63.3720         0.011922   
    460. D(N   1,C  38,C  37,H  40)    178.5984         0.011922   
    461. D(N   1,C  38,C  37,H  39)     61.6135         0.011922   
    462. D(N   1,C  38,C  37,O  34)    -60.6589         0.011922   
    463. D(H  42,C  38,N   1,C  43)     41.9070         0.016310   
    464. D(H  42,C  38,N   1,C   3)    167.3350         0.016310   
    465. D(H  42,C  38,N   1,K   0)    -78.4316         0.016310   
    466. D(H  41,C  38,N   1,C  43)    -74.3705         0.016310   
    467. D(H  41,C  38,C  37,O  34)    174.3556         0.011922   
    468. D(H  41,C  38,N   1,C   3)     51.0575         0.016310   
    469. D(H  41,C  38,N   1,K   0)    165.2909         0.016310   
    470. D(C  37,C  38,N   1,C  43)    162.4899         0.016310   
    471. D(H  42,C  38,C  37,H  39)   -177.1170         0.011922   
    472. D(C  37,C  38,N   1,C   3)    -72.0822         0.016310   
    473. D(C  37,C  38,N   1,K   0)     42.1512         0.016310   
    474. D(H  46,C  43,N   1,C  38)     48.8529         0.016454   
    475. D(H  46,C  43,N   1,C   3)    -76.6105         0.016454   
    476. D(H  46,C  43,N   1,K   0)    168.4004         0.016454   
    477. D(H  45,C  43,N   1,C  38)    166.0352         0.016454   
    478. D(H  45,C  43,N   1,C   3)     40.5718         0.016454   
    479. D(H  45,C  43,N   1,K   0)    -74.4172         0.016454   
    480. D(C  44,C  43,N   1,C  38)    -74.2652         0.016454   
    481. D(C  44,C  43,N   1,C   3)    160.2713         0.016454   
    482. D(C  44,C  43,N   1,K   0)     45.2823         0.016454   
    483. D(H  49,C  44,C  43,H  46)    -68.1133         0.012132   
    484. D(H  49,C  44,C  43,H  45)    177.2020         0.012132   
    485. D(H  49,C  44,C  43,N   1)     56.5234         0.012132   
    486. D(H  48,C  44,C  43,H  46)     48.7414         0.012132   
    487. D(H  48,C  44,C  43,H  45)    -65.9433         0.012132   
    488. D(H  48,C  44,C  43,N   1)    173.3782         0.012132   
    489. D(O  47,C  44,C  43,H  46)    169.0588         0.012132   
    490. D(O  47,C  44,C  43,H  45)     54.3741         0.012132   
    491. D(O  47,C  44,C  43,N   1)    -66.3045         0.012132   
    492. D(C  44,O  47,K   0,N   1)    -18.7313         0.001521   
    493. D(C  50,O  47,C  44,H  49)     51.3473         0.021957   
    494. D(C  50,O  47,C  44,H  48)    -66.1533         0.021957   
    495. D(C  50,O  47,C  44,C  43)    174.3843         0.021957   
    496. D(K   0,O  47,C  44,H  48)    167.8371         0.021957   
    497. D(K   0,O  47,C  44,C  43)     48.3746         0.021957   
    498. D(C  50,O  47,K   0,O  54)    -11.2366         0.001521   
    499. D(C  50,O  47,K   0,O  34)    -94.5229         0.001521   
    500. D(C  50,O  47,K   0,O  27)    -56.9293         0.001521   
    501. D(C  50,O  47,K   0,O  14)     93.6576         0.001521   
    502. D(C  50,O  47,K   0,O   7)    156.6627         0.001521   
    503. D(C  50,O  47,K   0,N   2)     24.7636         0.001521   
    504. D(C  50,O  47,K   0,N   1)   -146.8723         0.001521   
    505. D(C  44,O  47,K   0,O  54)    116.9045         0.001521   
    506. D(C  44,O  47,K   0,O  34)     33.6182         0.001521   
    507. D(K   0,O  47,C  44,H  49)    -74.6623         0.021957   
    508. D(C  44,O  47,K   0,O  27)     71.2117         0.001521   
    509. D(C  44,O  47,K   0,O  14)   -138.2013         0.001521   
    510. D(C  44,O  47,K   0,O   7)    -75.1963         0.001521   
    511. D(C  44,O  47,K   0,N   2)    152.9047         0.001521   
    512. D(H  53,C  50,O  47,C  44)     35.7672         0.021602   
    513. D(H  53,C  50,O  47,K   0)    163.1120         0.021602   
    514. D(H  52,C  50,O  47,C  44)    151.8540         0.021602   
    515. D(H  52,C  50,O  47,K   0)    -80.8011         0.021602   
    516. D(C  51,C  50,O  47,C  44)    -87.0806         0.021602   
    517. D(C  51,C  50,O  47,K   0)     40.2643         0.021602   
    518. D(H  56,C  51,C  50,H  53)    -70.3624         0.011520   
    519. D(H  56,C  51,C  50,H  52)    172.0954         0.011520   
    520. D(H  56,C  51,C  50,O  47)     53.2303         0.011520   
    521. D(H  55,C  51,C  50,H  53)     47.8323         0.011520   
    522. D(H  55,C  51,C  50,H  52)    -69.7099         0.011520   
    523. D(H  55,C  51,C  50,O  47)    171.4250         0.011520   
    524. D(O  54,C  51,C  50,H  53)    171.6359         0.011520   
    525. D(O  54,C  51,C  50,H  52)     54.0937         0.011520   
    526. D(O  54,C  51,C  50,O  47)    -64.7715         0.011520   
    527. D(C  57,O  54,C  51,H  56)    159.0795         0.022057   
    528. D(C  57,O  54,C  51,H  55)     43.0570         0.022057   
    529. D(C  57,O  54,C  51,C  50)    -80.4145         0.022057   
    530. D(K   0,O  54,C  51,H  56)    -69.3825         0.022057   
    531. D(K   0,O  54,C  51,H  55)    174.5950         0.022057   
    532. D(K   0,O  54,C  51,C  50)     51.1234         0.022057   
    533. D(C  57,O  54,K   0,O  47)    112.2175         0.001557   
    534. D(C  57,O  54,K   0,O  34)   -144.2680         0.001557   
    535. D(C  57,O  54,K   0,O  27)    -84.5961         0.001557   
    536. D(C  57,O  54,K   0,O  14)      7.3399         0.001557   
    537. D(C  57,O  54,K   0,O   7)     76.2010         0.001557   
    538. D(C  57,O  54,K   0,N   2)    -30.9467         0.001557   
    539. D(C  57,O  54,K   0,N   1)    154.2880         0.001557   
    540. D(C  51,O  54,K   0,O  47)    -20.4393         0.001557   
    541. D(C  51,O  54,K   0,O  34)     83.0752         0.001557   
    542. D(C  51,O  54,K   0,O  27)    142.7470         0.001557   
    543. D(C  51,O  54,K   0,O  14)   -125.3170         0.001557   
    544. D(C  51,O  54,K   0,O   7)    -56.4559         0.001557   
    545. D(C  51,O  54,K   0,N   2)   -163.6035         0.001557   
    546. D(C  51,O  54,K   0,N   1)     21.6312         0.001557   
    547. D(H  60,C  57,O  54,C  51)     68.7896         0.022228   
    548. D(H  60,C  57,O  54,K   0)    -62.0147         0.022228   
    549. D(H  59,C  57,O  54,C  51)    -49.4087         0.022228   
    550. D(H  59,C  57,O  54,K   0)    179.7870         0.022228   
    551. D(C  58,C  57,O  54,C  51)   -167.9673         0.022228   
    552. D(C  58,C  57,O  54,K   0)     61.2284         0.022228   
    553. D(H  62,C  58,C  57,H  60)    -65.8947         0.012054   
    554. D(H  62,C  58,C  57,H  59)     51.5025         0.012054   
    555. D(H  61,C  58,C  57,H  60)    179.4464         0.012054   
    556. D(H  61,C  58,C  57,H  59)    -63.1563         0.012054   
    557. D(H  61,C  58,C  57,O  54)     56.4927         0.012054   
    558. D(N   2,C  58,C  57,H  60)     59.2417         0.012054   
    559. D(N   2,C  58,C  57,H  59)    176.6390         0.012054   
    560. D(N   2,C  58,C  57,O  54)    -63.7119         0.012054   
    561. D(H  62,C  58,N   2,C  23)    -85.5874         0.016080   
    562. D(H  62,C  58,N   2,C  18)     43.8128         0.016080   
    563. D(H  62,C  58,N   2,K   0)    154.7642         0.016080   
    564. D(H  61,C  58,N   2,C  23)     31.7512         0.016080   
    565. D(H  61,C  58,N   2,C  18)    161.1513         0.016080   
    566. D(H  61,C  58,N   2,K   0)    -87.8973         0.016080   
    567. D(H  62,C  58,C  57,O  54)    171.1516         0.012054   
    568. D(C  57,C  58,N   2,C  23)    151.2029         0.016080   
    569. D(C  57,C  58,N   2,C  18)    -79.3969         0.016080   
    570. D(C  57,C  58,N   2,K   0)     31.5545         0.016080   
    -----------------------------------------------------------------

Number of atoms                         .... 63
Number of degrees of freedom            .... 570

         *************************************************************
         *                GEOMETRY OPTIMIZATION CYCLE   1            *
         *************************************************************
---------------------------------
CARTESIAN COORDINATES (ANGSTROEM)
---------------------------------
  K     -1.618000    0.290000   -1.373000
  N     -1.278000    2.997000   -0.494000
  N     -2.290000   -2.407000   -2.498000
  C     -0.742000    2.866000    0.865000
  C      0.441000    1.923000    1.015000
  H     -1.542000    2.493000    1.521000
  H     -0.435000    3.855000    1.272000
  O      0.052000    0.586000    0.758000
  H      0.827000    2.014000    2.049000
  H      1.274000    2.204000    0.344000
  C      1.125000   -0.334000    0.807000
  C      0.608000   -1.739000    0.592000
  H      1.633000   -0.288000    1.790000
  H      1.873000   -0.088000    0.027000
  O      0.012000   -1.825000   -0.689000
  H     -0.130000   -1.997000    1.376000
  H      1.457000   -2.443000    0.681000
  C     -0.291000   -3.137000   -1.119000
  C     -0.996000   -3.090000   -2.464000
  H     -0.903000   -3.663000   -0.362000
  H      0.639000   -3.725000   -1.239000
  H     -1.090000   -4.139000   -2.826000
  H     -0.320000   -2.577000   -3.167000
  C     -3.322000   -3.021000   -1.656000
  C     -3.470000   -2.422000   -0.253000
  H     -3.160000   -4.113000   -1.535000
  H     -4.289000   -2.924000   -2.172000
  O     -3.689000   -1.026000   -0.218000
  H     -2.560000   -2.578000    0.342000
  H     -4.294000   -2.954000    0.262000
  C     -4.893000   -0.537000   -0.772000
  C     -5.054000    0.896000   -0.309000
  H     -5.760000   -1.127000   -0.418000
  H     -4.874000   -0.581000   -1.878000
  O     -3.942000    1.664000   -0.737000
  H     -5.111000    0.904000    0.796000
  H     -5.997000    1.318000   -0.707000
  C     -3.755000    2.839000    0.026000
  C     -2.588000    3.656000   -0.505000
  H     -3.611000    2.566000    1.090000
  H     -4.658000    3.479000   -0.025000
  H     -2.560000    4.608000    0.068000
  H     -2.830000    3.929000   -1.542000
  C     -0.345000    3.693000   -1.384000
  C     -0.595000    3.461000   -2.863000
  H      0.675000    3.344000   -1.171000
  H     -0.353000    4.789000   -1.196000
  O     -0.344000    2.104000   -3.187000
  H      0.080000    4.119000   -3.442000
  H     -1.627000    3.745000   -3.141000
  C     -0.672000    1.761000   -4.525000
  C     -2.134000    1.351000   -4.669000
  H     -0.008000    0.929000   -4.811000
  H     -0.452000    2.599000   -5.213000
  O     -2.444000    0.164000   -3.960000
  H     -2.391000    1.241000   -5.741000
  H     -2.789000    2.130000   -4.251000
  C     -2.084000   -1.044000   -4.605000
  C     -2.734000   -2.212000   -3.884000
  H     -2.450000   -1.037000   -5.650000
  H     -0.983000   -1.157000   -4.647000
  H     -3.817000   -2.021000   -3.876000
  H     -2.572000   -3.125000   -4.497000

----------------------------
CARTESIAN COORDINATES (A.U.)
----------------------------
  NO LB      ZA    FRAG     MASS         X           Y           Z
   0 K     9.0000*   0    39.100   -3.057577    0.548021   -2.594594
   1 N     7.0000    0    14.007   -2.415070    5.663509   -0.933525
   2 N     7.0000    0    14.007   -4.327473   -4.548571   -4.720536
   3 C     6.0000    0    12.011   -1.402177    5.415955    1.634613
   4 C     6.0000    0    12.011    0.833369    3.633943    1.918072
   5 H     1.0000    0     1.008   -2.913958    4.711087    2.874273
   6 H     1.0000    0     1.008   -0.822031    7.284894    2.403732
   7 O     8.0000    0    15.999    0.098266    1.107380    1.432412
   8 H     1.0000    0     1.008    1.562804    3.805908    3.872049
   9 H     1.0000    0     1.008    2.407511    4.164956    0.650066
  10 C     6.0000    0    12.011    2.125942   -0.631169    1.525009
  11 C     6.0000    0    12.011    1.148953   -3.286234    1.118718
  12 H     1.0000    0     1.008    3.085923   -0.544241    3.382610
  13 H     1.0000    0     1.008    3.539457   -0.166296    0.051023
  14 O     8.0000    0    15.999    0.022677   -3.448750   -1.302021
  15 H     1.0000    0     1.008   -0.245664   -3.773783    2.600263
  16 H     1.0000    0     1.008    2.753331   -4.616601    1.286903
  17 C     6.0000    0    12.011   -0.549910   -5.928071   -2.114604
  18 C     6.0000    0    12.011   -1.882167   -5.839254   -4.656285
  19 H     1.0000    0     1.008   -1.706423   -6.922067   -0.684081
  20 H     1.0000    0     1.008    1.207535   -7.039230   -2.341371
  21 H     1.0000    0     1.008   -2.059801   -7.821576   -5.340366
  22 H     1.0000    0     1.008   -0.604712   -4.869824   -5.984763
  23 C     6.0000    0    12.011   -6.277670   -5.708863   -3.129386
  24 C     6.0000    0    12.011   -6.557350   -4.576917   -0.478101
  25 H     1.0000    0     1.008   -5.971535   -7.772444   -2.900730
  26 H     1.0000    0     1.008   -8.105035   -5.525559   -4.104485
  27 O     8.0000    0    15.999   -6.971200   -1.938859   -0.411960
  28 H     1.0000    0     1.008   -4.837699   -4.871714    0.646286
  29 H     1.0000    0     1.008   -8.114484   -5.582251    0.495108
  30 C     6.0000    0    12.011   -9.246430   -1.014783   -1.458869
  31 C     6.0000    0    12.011   -9.550676    1.693195   -0.583925
  32 H     1.0000    0     1.008  -10.884823   -2.129721   -0.789906
  33 H     1.0000    0     1.008   -9.210525   -1.097931   -3.548906
  34 O     8.0000    0    15.999   -7.449300    3.144504   -1.392728
  35 H     1.0000    0     1.008   -9.658390    1.708312    1.504222
  36 H     1.0000    0     1.008  -11.332688    2.490659   -1.336036
  37 C     6.0000    0    12.011   -7.095922    5.364932    0.049133
  38 C     6.0000    0    12.011   -4.890611    6.908839   -0.954312
  39 H     1.0000    0     1.008   -6.823801    4.849037    2.059801
  40 H     1.0000    0     1.008   -8.802344    6.574357   -0.047243
  41 H     1.0000    0     1.008   -4.837699    8.707858    0.128501
  42 H     1.0000    0     1.008   -5.347925    7.424734   -2.913958
  43 C     6.0000    0    12.011   -0.651956    6.978759   -2.615381
  44 C     6.0000    0    12.011   -1.124387    6.540342   -5.410286
  45 H     1.0000    0     1.008    1.275565    6.319244   -2.212869
  46 H     1.0000    0     1.008   -0.667073    9.049898   -2.260112
  47 O     8.0000    0    15.999   -0.650066    3.975984   -6.022557
  48 H     1.0000    0     1.008    0.151178    7.783782   -6.504437
  49 H     1.0000    0     1.008   -3.074584    7.077024   -5.935630
  50 C     6.0000    0    12.011   -1.269896    3.327808   -8.551011
  51 C     6.0000    0    12.011   -4.032676    2.553020   -8.823131
  52 H     1.0000    0     1.008   -0.015118    1.755556   -9.091472
  53 H     1.0000    0     1.008   -0.854156    4.911398   -9.851142
  54 O     8.0000    0    15.999   -4.618491    0.309915   -7.483315
  55 H     1.0000    0     1.008   -4.518335    2.345150  -10.848918
  56 H     1.0000    0     1.008   -5.270446    4.025117   -8.033226
  57 C     6.0000    0    12.011   -3.938189   -1.972874   -8.702189
  58 C     6.0000    0    12.011   -5.166511   -4.180074   -7.339696
  59 H     1.0000    0     1.008   -4.629829   -1.959646  -10.676953
  60 H     1.0000    0     1.008   -1.857601   -2.186413   -8.781557
  61 H     1.0000    0     1.008   -7.213085   -3.819137   -7.324578
  62 H     1.0000    0     1.008   -4.860376   -5.905394   -8.498098
* core charge reduced due to ECP

--------------------------------
INTERNAL COORDINATES (ANGSTROEM)
--------------------------------
 K      0   0   0     0.000000000000     0.00000000     0.00000000
 N      1   0   0     2.866372271705     0.00000000     0.00000000
 N      1   2   0     2.998502626312   172.34025755     0.00000000
 C      2   1   3     1.466744013112   104.07146882   146.83578503
 C      4   2   1     1.520275632903   115.54252740    49.52769682
 H      4   2   1     1.099756791295   108.49007515   289.08453627
 H      4   2   1     1.112663021764   111.12236015   172.32804799
 O      5   4   2     1.415958685838   110.73264696   293.52911634
 H      5   4   2     1.107444355261   108.20256053   172.84360454
 H      5   4   2     1.105934446520   111.63185064    56.03737603
 C      8   5   4     1.414259523567   113.54811216   176.62349841
 C     11   8   5     1.512461239173   109.87857389   177.11566968
 H     11   8   5     1.107460608780   110.59467313    57.03980134
 H     11   8   5     1.108341102730   110.07601055   298.01254360
 O     12  11   8     1.415476244944   109.20912178    61.54247506
 H     12  11   8     1.107187427674   110.09967254   300.36609267
 H     12  11   8     1.106498079528   108.50113386   182.57142601
 C     15  12  11     1.413525026308   114.95800552   168.82750361
 C      3   1   8     1.463584982159   102.29112270   318.60499609
 H     18  15  12     1.106466899640   110.59025930    53.42001495
 H     18  15  12     1.106817058054   110.24067694   295.73701741
 H     19   3   1     1.113679038143   110.93962426   178.01531998
 H     19   3   1     1.101977313741   108.07729362   294.34539245
 C      3   1   8     1.466623332693   108.59357995    79.91814167
 C     24   3   1     1.532681963096   115.45889693   341.25719815
 H     24   3   1     1.110562470102   111.81177086   218.10960088
 H     24   3   1     1.100342673898   108.19520061   102.44503893
 O     25  24   3     1.413506986187   115.06237083    54.72579468
 H     25  24   3     1.098390185681   111.12234768   295.86468936
 H     25  24   3     1.107801877594   108.04068733   178.49151515
 C     28  25  24     1.412675829764   117.65855154    65.08214504
 C     31  28  25     1.514522697090   107.35152258   165.92823421
 H     31  28  25     1.106844614207   110.95656996    47.08681974
 H     31  28  25     1.107037939729   111.30977524   286.57131148
 O     32  31  28     1.417586681653   109.68910237    58.98190209
 H     32  31  28     1.106498079528   108.51844691   299.08402452
 H     32  31  28     1.107130073659   109.95581195   180.91399214
 C     35  32  31     1.413422442159   113.02771404   201.58594187
 C      2   1  28     1.466459000450   108.42929796   313.49517396
 H     38  35  32     1.107863258710   109.31704069    58.72285205
 H     38  35  32     1.107975631501   110.33556960   301.30722621
 H     39   2   1     1.111493139880   111.00978594   165.29091669
 H     39   2   1     1.099300686800   108.38062465   281.56838690
 C      2   1  28     1.465266187421   109.74612038   192.66633948
 C     44   2   1     1.517815864985   114.48042292    45.28230705
 H     44   2   1     1.098894899433   108.81061189   285.58275819
 H     44   2   1     1.112035970641   111.15439175   168.40043748
 O     45  44   2     1.417542239230   109.86942258   293.69550103
 H     45  44   2     1.106268502670   108.57719831   173.37815364
 H     45  44   2     1.105877027522   111.06389171    56.52340418
 C     48  45  44     1.419674962800   113.94074266   174.38426296
 C     51  48  45     1.525214738979   112.04849314   272.91944676
 H     51  48  45     1.102232280420   106.72243829   151.85402767
 H     51  48  45     1.106339911600   110.92506853    35.76718289
 O     52  51  48     1.416950951868   112.80900052   295.22854164
 H     52  51  48     1.107850621700   109.90213623   171.42499171
 H     52  51  48     1.100268149135   110.14789391    53.23027452
 C     55  52  51     1.415941029846   115.53950604   279.58545306
 C      3   1  28     1.468385848474   107.60519908   115.80337606
 H     58  55  52     1.107262389861   109.90605265   310.59131110
 H     58  55  52     1.107580245400   110.91928514    68.78963167
 H     59   3   1     1.099742697180   108.29848073   272.10272674
 H     59   3   1     1.111567361881   111.55464527   154.76416827

---------------------------
INTERNAL COORDINATES (A.U.)
---------------------------
 K      0   0   0     0.000000000000     0.00000000     0.00000000
 N      1   0   0     5.416658591388     0.00000000     0.00000000
 N      1   2   0     5.666348775573   172.34025755     0.00000000
 C      2   1   3     2.771744493350   104.07146882   146.83578503
 C      4   2   1     2.872904594261   115.54252740    49.52769682
 H      4   2   1     2.078239149468   108.49007515   289.08453627
 H      4   2   1     2.102628390474   111.12236015   172.32804799
 O      5   4   2     2.675774133181   110.73264696   293.52911634
 H      5   4   2     2.092766540001   108.20256053   172.84360454
 H      5   4   2     2.089913225993   111.63185064    56.03737603
 C      8   5   4     2.672563181832   113.54811216   176.62349841
 C     11   8   5     2.858137530208   109.87857389   177.11566968
 H     11   8   5     2.092797254700   110.59467313    57.03980134
 H     11   8   5     2.094461147127   110.07601055   298.01254360
 O     12  11   8     2.674862452015   109.20912178    61.54247506
 H     12  11   8     2.092281017225   110.09967254   300.36609267
 H     12  11   8     2.090978338018   108.50113386   182.57142601
 C     15  12  11     2.671175183167   114.95800552   168.82750361
 C      3   1   8     2.765774790000   102.29112270   318.60499609
 H     18  15  12     2.090919416569   110.59025930    53.42001495
 H     18  15  12     2.091581120075   110.24067694   295.73701741
 H     19   3   1     2.104548383180   110.93962426   178.01531998
 H     19   3   1     2.082435328765   108.07729362   294.34539245
 C      3   1   8     2.771516440409   108.59357995    79.91814167
 C     24   3   1     2.896349160652   115.45889693   341.25719815
 H     24   3   1     2.098658923105   111.81177086   218.10960088
 H     24   3   1     2.079346307133   108.19520061   102.44503893
 O     25  24   3     2.671141092278   115.06237083    54.72579468
 H     25  24   3     2.075656639124   111.12234768   295.86468936
 H     25  24   3     2.093442159296   108.04068733   178.49151515
 C     28  25  24     2.669570434264   117.65855154    65.08214504
 C     31  28  25     2.862033121107   107.35152258   165.92823421
 H     31  28  25     2.091633193658   110.95656996    47.08681974
 H     31  28  25     2.091998525949   111.30977524   286.57131148
 O     32  31  28     2.678850599418   109.68910237    58.98190209
 H     32  31  28     2.090978338018   108.51844691   299.08402452
 H     32  31  28     2.092172633843   109.95581195   180.91399214
 C     35  32  31     2.670981327220   113.02771404   201.58594187
 C      2   1  28     2.771205897474   108.42929796   313.49517396
 H     38  35  32     2.093558152796   109.31704069    58.72285205
 H     38  35  32     2.093770506595   110.33556960   301.30722621
 H     39   2   1     2.100417634105   111.00978594   165.29091669
 H     39   2   1     2.077377236884   108.38062465   281.56838690
 C      2   1  28     2.768951807521   109.74612038   192.66633948
 C     44   2   1     2.868256306542   114.48042292    45.28230705
 H     44   2   1     2.076610409891   108.81061189   285.58275819
 H     44   2   1     2.101443435581   111.15439175   168.40043748
 O     45  44   2     2.678766615409   109.86942258   293.69550103
 H     45  44   2     2.090544500630   108.57719831   173.37815364
 H     45  44   2     2.089804719811   111.06389171    56.52340418
 C     48  45  44     2.682796878876   113.94074266   174.38426296
 C     51  48  45     2.882238152091   112.04849314   272.91944676
 H     51  48  45     2.082917145961   106.72243829   151.85402767
 H     51  48  45     2.090679443951   110.92506853    35.76718289
 O     52  51  48     2.677649244230   112.80900052   295.22854164
 H     52  51  48     2.093534272306   109.90213623   171.42499171
 H     52  51  48     2.079205475741   110.14789391    53.23027452
 C     55  52  51     2.675740768190   115.53950604   279.58545306
 C      3   1  28     2.774847112542   107.60519908   115.80337606
 H     58  55  52     2.092422675228   109.90605265   310.59131110
 H     58  55  52     2.093023335147   110.91928514    68.78963167
 H     59   3   1     2.078212515449   108.29848073   272.10272674
 H     59   3   1     2.100557893361   111.55464527   154.76416827

---------------------
BASIS SET INFORMATION
---------------------
There are 5 groups of distinct atoms

 Group   1 Type K   : 8s5p contracted to 3s3p pattern {341/311}
 Group   2 Type N   : 10s5p contracted to 3s2p pattern {721/41}
 Group   3 Type C   : 10s5p contracted to 3s2p pattern {721/41}
 Group   4 Type H   : 4s contracted to 2s pattern {31}
 Group   5 Type O   : 10s5p contracted to 3s2p pattern {721/41}

Atom   0K    basis set group =>   1
Atom   1N    basis set group =>   2
Atom   2N    basis set group =>   2
Atom   3C    basis set group =>   3
Atom   4C    basis set group =>   3
Atom   5H    basis set group =>   4
Atom   6H    basis set group =>   4
Atom   7O    basis set group =>   5
Atom   8H    basis set group =>   4
Atom   9H    basis set group =>   4
Atom  10C    basis set group =>   3
Atom  11C    basis set group =>   3
Atom  12H    basis set group =>   4
Atom  13H    basis set group =>   4
Atom  14O    basis set group =>   5
Atom  15H    basis set group =>   4
Atom  16H    basis set group =>   4
Atom  17C    basis set group =>   3
Atom  18C    basis set group =>   3
Atom  19H    basis set group =>   4
Atom  20H    basis set group =>   4
Atom  21H    basis set group =>   4
Atom  22H    basis set group =>   4
Atom  23C    basis set group =>   3
Atom  24C    basis set group =>   3
Atom  25H    basis set group =>   4
Atom  26H    basis set group =>   4
Atom  27O    basis set group =>   5
Atom  28H    basis set group =>   4
Atom  29H    basis set group =>   4
Atom  30C    basis set group =>   3
Atom  31C    basis set group =>   3
Atom  32H    basis set group =>   4
Atom  33H    basis set group =>   4
Atom  34O    basis set group =>   5
Atom  35H    basis set group =>   4
Atom  36H    basis set group =>   4
Atom  37C    basis set group =>   3
Atom  38C    basis set group =>   3
Atom  39H    basis set group =>   4
Atom  40H    basis set group =>   4
Atom  41H    basis set group =>   4
Atom  42H    basis set group =>   4
Atom  43C    basis set group =>   3
Atom  44C    basis set group =>   3
Atom  45H    basis set group =>   4
Atom  46H    basis set group =>   4
Atom  47O    basis set group =>   5
Atom  48H    basis set group =>   4
Atom  49H    basis set group =>   4
Atom  50C    basis set group =>   3
Atom  51C    basis set group =>   3
Atom  52H    basis set group =>   4
Atom  53H    basis set group =>   4
Atom  54O    basis set group =>   5
Atom  55H    basis set group =>   4
Atom  56H    basis set group =>   4
Atom  57C    basis set group =>   3
Atom  58C    basis set group =>   3
Atom  59H    basis set group =>   4
Atom  60H    basis set group =>   4
Atom  61H    basis set group =>   4
Atom  62H    basis set group =>   4
---------------------------------
AUXILIARY/J BASIS SET INFORMATION
---------------------------------
There are 5 groups of distinct atoms

 Group   1 Type K   : 19s5p5d3f1g contracted to 8s4p4d1f1g pattern {121111111/2111/2111/3/1}
 Group   2 Type N   : 12s5p4d2f1g contracted to 6s4p3d1f1g pattern {711111/2111/211/2/1}
 Group   3 Type C   : 12s5p4d2f1g contracted to 6s4p3d1f1g pattern {711111/2111/211/2/1}
 Group   4 Type H   : 5s2p1d contracted to 3s1p1d pattern {311/2/1}
 Group   5 Type O   : 12s5p4d2f1g contracted to 6s4p3d1f1g pattern {711111/2111/211/2/1}

Atom   0K    basis set group =>   1
Atom   1N    basis set group =>   2
Atom   2N    basis set group =>   2
Atom   3C    basis set group =>   3
Atom   4C    basis set group =>   3
Atom   5H    basis set group =>   4
Atom   6H    basis set group =>   4
Atom   7O    basis set group =>   5
Atom   8H    basis set group =>   4
Atom   9H    basis set group =>   4
Atom  10C    basis set group =>   3
Atom  11C    basis set group =>   3
Atom  12H    basis set group =>   4
Atom  13H    basis set group =>   4
Atom  14O    basis set group =>   5
Atom  15H    basis set group =>   4
Atom  16H    basis set group =>   4
Atom  17C    basis set group =>   3
Atom  18C    basis set group =>   3
Atom  19H    basis set group =>   4
Atom  20H    basis set group =>   4
Atom  21H    basis set group =>   4
Atom  22H    basis set group =>   4
Atom  23C    basis set group =>   3
Atom  24C    basis set group =>   3
Atom  25H    basis set group =>   4
Atom  26H    basis set group =>   4
Atom  27O    basis set group =>   5
Atom  28H    basis set group =>   4
Atom  29H    basis set group =>   4
Atom  30C    basis set group =>   3
Atom  31C    basis set group =>   3
Atom  32H    basis set group =>   4
Atom  33H    basis set group =>   4
Atom  34O    basis set group =>   5
Atom  35H    basis set group =>   4
Atom  36H    basis set group =>   4
Atom  37C    basis set group =>   3
Atom  38C    basis set group =>   3
Atom  39H    basis set group =>   4
Atom  40H    basis set group =>   4
Atom  41H    basis set group =>   4
Atom  42H    basis set group =>   4
Atom  43C    basis set group =>   3
Atom  44C    basis set group =>   3
Atom  45H    basis set group =>   4
Atom  46H    basis set group =>   4
Atom  47O    basis set group =>   5
Atom  48H    basis set group =>   4
Atom  49H    basis set group =>   4
Atom  50C    basis set group =>   3
Atom  51C    basis set group =>   3
Atom  52H    basis set group =>   4
Atom  53H    basis set group =>   4
Atom  54O    basis set group =>   5
Atom  55H    basis set group =>   4
Atom  56H    basis set group =>   4
Atom  57C    basis set group =>   3
Atom  58C    basis set group =>   3
Atom  59H    basis set group =>   4
Atom  60H    basis set group =>   4
Atom  61H    basis set group =>   4
Atom  62H    basis set group =>   4
-------------------------
ECP PARAMETER INFORMATION
-------------------------

 Group 1, Type K  ECP HayWadt (replacing 10 core electrons, lmax=2)

Atom   0K    ECP group =>   1



           ************************************************************
           *        Program running with 16 parallel MPI-processes    *
           *              working on a common directory               *
           ************************************************************
------------------------------------------------------------------------------
                           ORCA GTO INTEGRAL CALCULATION
                           -- RI-GTO INTEGRALS CHOSEN --
------------------------------------------------------------------------------
------------------------------------------------------------------------------
                   ___                                                        
                  /   \      - P O W E R E D   B Y -                         
                 /     \                                                     
                 |  |  |   _    _      __       _____    __    __             
                 |  |  |  | |  | |    /  \     |  _  \  |  |  /  |          
                  \  \/   | |  | |   /    \    | | | |  |  | /  /          
                 / \  \   | |__| |  /  /\  \   | |_| |  |  |/  /          
                |  |  |   |  __  | /  /__\  \  |    /   |      \           
                |  |  |   | |  | | |   __   |  |    \   |  |\   \          
                \     /   | |  | | |  |  |  |  | |\  \  |  | \   \       
                 \___/    |_|  |_| |__|  |__|  |_| \__\ |__|  \__/        
                                                                              
                      - O R C A' S   B I G   F R I E N D -                    
                                      &                                       
                       - I N T E G R A L  F E E D E R -                       
                                                                              
 v1 FN, 2020, v2 2021                                                         
------------------------------------------------------------------------------


Reading SHARK input file Kcryptand_small_opt.orca.SHARKINP.tmp ... ok
----------------------
SHARK INTEGRAL PACKAGE
----------------------

Number of atoms                             ...     63
Number of basis functions                   ...    318
Number of shells                            ...    208
Maximum angular momentum                    ...      1
Integral batch strategy                     ... SHARK/LIBINT Hybrid
RI-J (if used) integral strategy            ... SPLIT-RIJ (Revised 2003 algorithm where possible)
Printlevel                                  ...      1
Contraction scheme used                     ... SEGMENTED contraction
Coulomb Range Separation                    ... NOT USED
Exchange Range Separation                   ... NOT USED
Finite Nucleus Model                        ... NOT USED
Auxiliary Coulomb fitting basis             ... AVAILABLE
   # of basis functions in Aux-J            ...   1726
   # of shells in Aux-J                     ...    588
   Maximum angular momentum in Aux-J        ...      4
Auxiliary J/K fitting basis                 ... NOT available
Auxiliary Correlation fitting basis         ... NOT available
Auxiliary 'external' fitting basis          ... NOT available
Integral threshold                          ...     2.500000e-11
Primitive cut-off                           ...     2.500000e-12
Primitive pair pre-selection threshold      ...     2.500000e-12

Calculating pre-screening integrals         ... done (  0.0 sec) Dimension = 208
Organizing shell pair data                  ... done (  0.4 sec)
Shell pair information
Total number of shell pairs                 ...     21736
Shell pairs after pre-screening             ...     17193
Total number of primitive shell pairs       ...    150726
Primitive shell pairs kept                  ...     60146
          la=0 lb=0:   8361 shell pairs
          la=1 lb=0:   7340 shell pairs
          la=1 lb=1:   1492 shell pairs

Calculating one electron integrals          ... done (  0.0 sec)
Calculating ECP integrals                   ... done (  0.9 sec)
[...]
      px      :     1.062835
      py      :     1.032589
 44 C s       :     3.334215  s :     3.334215
      pz      :     1.012464  p :     2.868858
      px      :     1.080814
      py      :     0.775581
 45 H s       :     0.793960  s :     0.793960
 46 H s       :     0.805640  s :     0.805640
 47 O s       :     3.844015  s :     3.844015
      pz      :     1.352751  p :     4.500710
      px      :     1.781379
      py      :     1.366581
 48 H s       :     0.803787  s :     0.803787
 49 H s       :     0.806144  s :     0.806144
 50 C s       :     3.315538  s :     3.315538
      pz      :     0.777872  p :     2.908177
      px      :     1.021107
      py      :     1.109197
 51 C s       :     3.315851  s :     3.315851
      pz      :     1.015482  p :     2.912805
      px      :     1.015789
      py      :     0.881534
 52 H s       :     0.780674  s :     0.780674
 53 H s       :     0.805047  s :     0.805047
 54 O s       :     3.842533  s :     3.842533
      pz      :     1.656031  p :     4.508910
      px      :     1.738453
      py      :     1.114426
 55 H s       :     0.804896  s :     0.804896
 56 H s       :     0.779008  s :     0.779008
 57 C s       :     3.339777  s :     3.339777
      pz      :     1.068835  p :     2.872645
      px      :     1.058129
      py      :     0.745681
 58 C s       :     3.343231  s :     3.343231
      pz      :     0.833642  p :     2.953229
      px      :     1.091884
      py      :     1.027703
 59 H s       :     0.804971  s :     0.804971
 60 H s       :     0.801259  s :     0.801259
 61 H s       :     0.790218  s :     0.790218
 62 H s       :     0.807939  s :     0.807939


                     *******************************
                     * LOEWDIN POPULATION ANALYSIS *
                     *******************************

----------------------
LOEWDIN ATOMIC CHARGES
----------------------
   0 K :    0.315112
   1 N :   -0.287169
   2 N :   -0.281562
   3 C :   -0.126147
   4 C :   -0.041377
   5 H :    0.144546
   6 H :    0.124910
   7 O :   -0.356004
   8 H :    0.126702
   9 H :    0.124010
  10 C :   -0.045667
  11 C :   -0.045631
  12 H :    0.129980
  13 H :    0.134893
  14 O :   -0.356408
  15 H :    0.135512
  16 H :    0.129550
  17 C :   -0.040042
  18 C :   -0.126487
  19 H :    0.117175
  20 H :    0.126241
  21 H :    0.125058
  22 H :    0.142703
  23 C :   -0.133675
  24 C :   -0.046956
  25 H :    0.125319
  26 H :    0.136170
  27 O :   -0.349018
  28 H :    0.129076
  29 H :    0.126174
  30 C :   -0.048674
  31 C :   -0.043593
  32 H :    0.130706
  33 H :    0.135988
  34 O :   -0.358649
  35 H :    0.135040
  36 H :    0.128225
  37 C :   -0.042095
  38 C :   -0.128799
  39 H :    0.122858
  40 H :    0.128389
  41 H :    0.124901
  42 H :    0.142465
  43 C :   -0.125347
  44 C :   -0.044082
  45 H :    0.144541
  46 H :    0.127487
  47 O :   -0.347723
  48 H :    0.126470
  49 H :    0.121602
  50 C :   -0.060852
  51 C :   -0.061046
  52 H :    0.138768
  53 H :    0.129730
  54 O :   -0.351897
  55 H :    0.130128
  56 H :    0.138314
  57 C :   -0.046560
  58 C :   -0.124525
  59 H :    0.127042
  60 H :    0.123685
  61 H :    0.145272
  62 H :    0.125243

-------------------------------
LOEWDIN REDUCED ORBITAL CHARGES
-------------------------------
  0 K s       :     2.170680  s :     2.170680
      pz      :     2.150031  p :     6.514207
      px      :     2.149341
      py      :     2.214836
  1 N s       :     3.211922  s :     3.211922
      pz      :     1.238198  p :     4.075247
      px      :     1.172199
      py      :     1.664850
  2 N s       :     3.208858  s :     3.208858
      pz      :     1.252887  p :     4.072704
      px      :     1.182537
      py      :     1.637280
  3 C s       :     2.942188  s :     2.942188
      pz      :     1.004243  p :     3.183959
      px      :     1.070822
      py      :     1.108894
  4 C s       :     2.955746  s :     2.955746
      pz      :     1.130812  p :     3.085631
      px      :     1.089585
      py      :     0.865234
  5 H s       :     0.855454  s :     0.855454
  6 H s       :     0.875090  s :     0.875090
  7 O s       :     3.554557  s :     3.554557
      pz      :     1.916534  p :     4.801447
      px      :     1.589173
      py      :     1.295741
  8 H s       :     0.873298  s :     0.873298
  9 H s       :     0.875990  s :     0.875990
 10 C s       :     2.955906  s :     2.955906
      pz      :     1.137320  p :     3.089761
      px      :     0.968706
      py      :     0.983735
 11 C s       :     2.956918  s :     2.956918
      pz      :     0.915643  p :     3.088714
      px      :     1.065489
      py      :     1.107582
 12 H s       :     0.870020  s :     0.870020
 13 H s       :     0.865107  s :     0.865107
 14 O s       :     3.555030  s :     3.555030
      pz      :     1.545170  p :     4.801378
      px      :     1.759678
      py      :     1.496531
 15 H s       :     0.864488  s :     0.864488
 16 H s       :     0.870450  s :     0.870450
 17 C s       :     2.956022  s :     2.956022
      pz      :     1.116215  p :     3.084020
      px      :     1.097177
      py      :     0.870628
 18 C s       :     2.942893  s :     2.942893
      pz      :     1.099647  p :     3.183594
      px      :     1.016676
      py      :     1.067271
 19 H s       :     0.882825  s :     0.882825
 20 H s       :     0.873759  s :     0.873759
 21 H s       :     0.874942  s :     0.874942
 22 H s       :     0.857297  s :     0.857297
 23 C s       :     2.949113  s :     2.949113
      pz      :     1.088306  p :     3.184562
      px      :     1.000127
      py      :     1.096129
 24 C s       :     2.957025  s :     2.957025
      pz      :     1.105910  p :     3.089931
      px      :     1.140499
      py      :     0.843521
 25 H s       :     0.874681  s :     0.874681
 26 H s       :     0.863830  s :     0.863830
 27 O s       :     3.549221  s :     3.549221
      pz      :     1.848544  p :     4.799797
      px      :     1.591294
      py      :     1.359960
 28 H s       :     0.870924  s :     0.870924
 29 H s       :     0.873826  s :     0.873826
 30 C s       :     2.955793  s :     2.955793
      pz      :     1.116920  p :     3.092881
      px      :     0.935325
      py      :     1.040636
 31 C s       :     2.958365  s :     2.958365
      pz      :     1.101553  p :     3.085228
      px      :     0.965239
      py      :     1.018435
 32 H s       :     0.869294  s :     0.869294
 33 H s       :     0.864012  s :     0.864012
 34 O s       :     3.553633  s :     3.553633
      pz      :     1.694266  p :     4.805016
      px      :     1.635189
      py      :     1.475561
 35 H s       :     0.864960  s :     0.864960
 36 H s       :     0.871775  s :     0.871775
 37 C s       :     2.955078  s :     2.955078
      pz      :     1.030039  p :     3.087017
      px      :     1.112538
      py      :     0.944440
 38 C s       :     2.943197  s :     2.943197
      pz      :     1.125058  p :     3.185602
      px      :     0.980738
      py      :     1.079807
 39 H s       :     0.877142  s :     0.877142
 40 H s       :     0.871611  s :     0.871611
 41 H s       :     0.875099  s :     0.875099
 42 H s       :     0.857535  s :     0.857535
 43 C s       :     2.943027  s :     2.943027
      pz      :     1.019489  p :     3.182320
      px      :     1.092803
      py      :     1.070027
 44 C s       :     2.956903  s :     2.956903
      pz      :     1.111519  p :     3.087179
      px      :     1.092788
      py      :     0.882872
 45 H s       :     0.855459  s :     0.855459
 46 H s       :     0.872513  s :     0.872513
 47 O s       :     3.555865  s :     3.555865
      pz      :     1.468023  p :     4.791858
      px      :     1.831742
      py      :     1.492093
 48 H s       :     0.873530  s :     0.873530
 49 H s       :     0.878398  s :     0.878398
 50 C s       :     2.960405  s :     2.960405
      pz      :     0.875476  p :     3.100447
      px      :     1.113947
      py      :     1.111023
 51 C s       :     2.960342  s :     2.960342
      pz      :     1.043654  p :     3.100704
      px      :     1.104238
      py      :     0.952812
 52 H s       :     0.861232  s :     0.861232
 53 H s       :     0.870270  s :     0.870270
 54 O s       :     3.554944  s :     3.554944
      pz      :     1.734681  p :     4.796953
      px      :     1.787329
      py      :     1.274943
 55 H s       :     0.869872  s :     0.869872
 56 H s       :     0.861686  s :     0.861686
 57 C s       :     2.958338  s :     2.958338
      pz      :     1.096171  p :     3.088222
      px      :     1.095629
      py      :     0.896421
 58 C s       :     2.946751  s :     2.946751
      pz      :     0.953859  p :     3.177775
      px      :     1.124720
      py      :     1.099195
 59 H s       :     0.872958  s :     0.872958
 60 H s       :     0.876315  s :     0.876315
 61 H s       :     0.854728  s :     0.854728
 62 H s       :     0.874757  s :     0.874757


                      *****************************
                      * MAYER POPULATION ANALYSIS *
                      *****************************

  NA   - Mulliken gross atomic population
  ZA   - Total nuclear charge
  QA   - Mulliken gross atomic charge
  VA   - Mayer's total valence
  BVA  - Mayer's bonded valence
  FA   - Mayer's free valence

  ATOM       NA         ZA         QA         VA         BVA        FA
  0 K      8.3649     9.0000     0.6351     0.7487     0.7487     0.0000
  1 N      7.1828     7.0000    -0.1828     2.6517     2.6517    -0.0000
  2 N      7.1654     7.0000    -0.1654     2.6650     2.6650    -0.0000
  3 C      6.3160     6.0000    -0.3160     3.6848     3.6848     0.0000
  4 C      6.1957     6.0000    -0.1957     3.6346     3.6346     0.0000
  5 H      0.7908     1.0000     0.2092     0.9187     0.9187    -0.0000
  6 H      0.8094     1.0000     0.1906     0.9058     0.9058     0.0000
  7 O      8.3586     8.0000    -0.3586     1.8826     1.8826     0.0000
  8 H      0.7973     1.0000     0.2027     0.8983     0.8983    -0.0000
  9 H      0.8058     1.0000     0.1942     0.9096     0.9096     0.0000
 10 C      6.2022     6.0000    -0.2022     3.6547     3.6547     0.0000
 11 C      6.1990     6.0000    -0.1990     3.6505     3.6505     0.0000
 12 H      0.8041     1.0000     0.1959     0.9017     0.9017    -0.0000
 13 H      0.7916     1.0000     0.2084     0.9024     0.9024     0.0000
 14 O      8.3607     8.0000    -0.3607     1.8876     1.8876     0.0000
 15 H      0.7901     1.0000     0.2099     0.9022     0.9022    -0.0000
 16 H      0.8048     1.0000     0.1952     0.9025     0.9025    -0.0000
 17 C      6.1904     6.0000    -0.1904     3.6228     3.6228     0.0000
 18 C      6.3281     6.0000    -0.3281     3.6974     3.6974    -0.0000
 19 H      0.8123     1.0000     0.1877     0.9125     0.9125     0.0000
 20 H      0.7983     1.0000     0.2017     0.8961     0.8961    -0.0000
 21 H      0.8103     1.0000     0.1897     0.9091     0.9091    -0.0000
 22 H      0.7929     1.0000     0.2071     0.9188     0.9188    -0.0000
 23 C      6.2989     6.0000    -0.2989     3.6534     3.6534     0.0000
 24 C      6.2405     6.0000    -0.2405     3.6612     3.6612     0.0000
 25 H      0.8088     1.0000     0.1912     0.9096     0.9096     0.0000
 26 H      0.7989     1.0000     0.2011     0.9197     0.9197     0.0000
 27 O      8.3459     8.0000    -0.3459     1.8939     1.8939     0.0000
 28 H      0.7957     1.0000     0.2043     0.9182     0.9182     0.0000
 29 H      0.8045     1.0000     0.1955     0.9053     0.9053     0.0000
 30 C      6.2233     6.0000    -0.2233     3.6589     3.6589    -0.0000
 31 C      6.1849     6.0000    -0.1849     3.6511     3.6511    -0.0000
 32 H      0.8066     1.0000     0.1934     0.9069     0.9069     0.0000
 33 H      0.7843     1.0000     0.2157     0.8966     0.8966     0.0000
 34 O      8.3628     8.0000    -0.3628     1.8769     1.8769     0.0000
 35 H      0.7960     1.0000     0.2040     0.9062     0.9062    -0.0000
 36 H      0.8018     1.0000     0.1982     0.9000     0.9000     0.0000
 37 C      6.2091     6.0000    -0.2091     3.6526     3.6526    -0.0000
 38 C      6.3088     6.0000    -0.3088     3.6945     3.6945     0.0000
 39 H      0.8002     1.0000     0.1998     0.9054     0.9054     0.0000
 40 H      0.7999     1.0000     0.2001     0.9006     0.9006     0.0000
 41 H      0.8112     1.0000     0.1888     0.9062     0.9062     0.0000
 42 H      0.7940     1.0000     0.2060     0.9161     0.9161     0.0000
 43 C      6.3086     6.0000    -0.3086     3.6872     3.6872     0.0000
 44 C      6.2031     6.0000    -0.2031     3.6439     3.6439    -0.0000
 45 H      0.7940     1.0000     0.2060     0.9215     0.9215     0.0000
 46 H      0.8056     1.0000     0.1944     0.9053     0.9053     0.0000
 47 O      8.3447     8.0000    -0.3447     1.8962     1.8962    -0.0000
 48 H      0.8038     1.0000     0.1962     0.9040     0.9040    -0.0000
 49 H      0.8061     1.0000     0.1939     0.9057     0.9057     0.0000
 50 C      6.2237     6.0000    -0.2237     3.6560     3.6560    -0.0000
 51 C      6.2287     6.0000    -0.2287     3.6566     3.6566    -0.0000
 52 H      0.7807     1.0000     0.2193     0.9085     0.9085     0.0000
 53 H      0.8050     1.0000     0.1950     0.9090     0.9090    -0.0000
 54 O      8.3514     8.0000    -0.3514     1.8880     1.8880     0.0000
 55 H      0.8049     1.0000     0.1951     0.9108     0.9108     0.0000
 56 H      0.7790     1.0000     0.2210     0.9079     0.9079    -0.0000
 57 C      6.2124     6.0000    -0.2124     3.6386     3.6386    -0.0000
 58 C      6.2965     6.0000    -0.2965     3.6818     3.6818     0.0000
 59 H      0.8050     1.0000     0.1950     0.9062     0.9062     0.0000
 60 H      0.8013     1.0000     0.1987     0.9044     0.9044    -0.0000
 61 H      0.7902     1.0000     0.2098     0.9174     0.9174     0.0000
 62 H      0.8079     1.0000     0.1921     0.9053     0.9053     0.0000

  Mayer bond orders larger than 0.100000
B(  1-N ,  3-C ) :   0.8913 B(  1-N , 38-C ) :   0.8932 B(  1-N , 43-C ) :   0.8812 
B(  2-N , 18-C ) :   0.8920 B(  2-N , 23-C ) :   0.8983 B(  2-N , 58-C ) :   0.8909 
B(  3-C ,  4-C ) :   0.9245 B(  3-C ,  5-H ) :   0.9093 B(  3-C ,  6-H ) :   0.8868 
B(  4-C ,  7-O ) :   0.8870 B(  4-C ,  8-H ) :   0.8882 B(  4-C ,  9-H ) :   0.8909 
B(  7-O , 10-C ) :   0.9000 B( 10-C , 11-C ) :   0.9365 B( 10-C , 12-H ) :   0.8876 
B( 10-C , 13-H ) :   0.8929 B( 11-C , 14-O ) :   0.8946 B( 11-C , 15-H ) :   0.8935 
B( 11-C , 16-H ) :   0.8891 B( 14-O , 17-C ) :   0.8941 B( 17-C , 18-C ) :   0.9188 
B( 17-C , 19-H ) :   0.8883 B( 17-C , 20-H ) :   0.8842 B( 18-C , 21-H ) :   0.8879 
B( 18-C , 22-H ) :   0.9137 B( 23-C , 24-C ) :   0.8912 B( 23-C , 25-H ) :   0.8871 
B( 23-C , 26-H ) :   0.9223 B( 24-C , 27-O ) :   0.9292 B( 24-C , 28-H ) :   0.9186 
B( 24-C , 29-H ) :   0.8920 B( 27-O , 30-C ) :   0.8855 B( 30-C , 31-C ) :   0.9358 
B( 30-C , 32-H ) :   0.8875 B( 30-C , 33-H ) :   0.8888 B( 31-C , 34-O ) :   0.8921 
B( 31-C , 35-H ) :   0.8945 B( 31-C , 36-H ) :   0.8909 B( 34-O , 37-C ) :   0.8881 
B( 37-C , 38-C ) :   0.9245 B( 37-C , 39-H ) :   0.8938 B( 37-C , 40-H ) :   0.8877 
B( 38-C , 41-H ) :   0.8842 B( 38-C , 42-H ) :   0.9116 B( 43-C , 44-C ) :   0.9211 
B( 43-C , 45-H ) :   0.9100 B( 43-C , 46-H ) :   0.8857 B( 44-C , 47-O ) :   0.8840 
B( 44-C , 48-H ) :   0.8881 B( 44-C , 49-H ) :   0.8928 B( 47-O , 50-C ) :   0.9181 
B( 50-C , 51-C ) :   0.8913 B( 50-C , 52-H ) :   0.9239 B( 50-C , 53-H ) :   0.8898 
B( 51-C , 54-O ) :   0.9138 B( 51-C , 55-H ) :   0.8917 B( 51-C , 56-H ) :   0.9222 
B( 54-O , 57-C ) :   0.8846 B( 57-C , 58-C ) :   0.9157 B( 57-C , 59-H ) :   0.8888 
B( 57-C , 60-H ) :   0.8930 B( 58-C , 61-H ) :   0.9168 B( 58-C , 62-H ) :   0.8885 


-------
TIMINGS
-------

Total SCF time: 0 days 0 hours 0 min 34 sec 

Total time                  ....      34.257 sec
Sum of individual times     ....      31.621 sec  ( 92.3%)

Fock matrix formation       ....      24.761 sec  ( 72.3%)
  Split-RI-J                ....       2.153 sec  (  8.7% of F)
  Chain of spheres X        ....      14.241 sec  ( 57.5% of F)
  XC integration            ....       7.164 sec  ( 28.9% of F)
    Basis function eval.    ....       0.402 sec  (  5.6% of XC)
    Density eval.           ....       0.340 sec  (  4.7% of XC)
    XC-Functional eval.     ....       0.071 sec  (  1.0% of XC)
    XC-Potential eval.      ....       0.133 sec  (  1.9% of XC)
Diagonalization             ....       0.043 sec  (  0.1%)
Density matrix formation    ....       0.009 sec  (  0.0%)
Population analysis         ....       0.141 sec  (  0.4%)
Initial guess               ....       0.039 sec  (  0.1%)
Orbital Transformation      ....       0.000 sec  (  0.0%)
Orbital Orthonormalization  ....       0.029 sec  (  0.1%)
DIIS solution               ....       0.017 sec  (  0.1%)
SOSCF solution              ....       0.219 sec  (  0.6%)
Grid generation             ....       6.392 sec  ( 18.7%)

Maximum memory used throughout the entire SCF-calculation: 103.3 MB

-------------------------   --------------------
FINAL SINGLE POINT ENERGY     -1295.446909755705
-------------------------   --------------------

                                *** OPTIMIZATION RUN DONE ***

                            ***************************************
                            *     ORCA property calculations      *
                            ***************************************

                                    ---------------------
                                    Active property flags
                                    ---------------------
   (+) Dipole Moment


------------------------------------------------------------------------------
                       ORCA ELECTRIC PROPERTIES CALCULATION
------------------------------------------------------------------------------

Dipole Moment Calculation                       ... on
Quadrupole Moment Calculation                   ... off
Polarizability Calculation                      ... off
GBWName                                         ... Kcryptand_small_opt.orca.gbw
Electron density                                ... Kcryptand_small_opt.orca.scfp
The origin for moment calculation is the CENTER OF MASS  = (-3.297174,  0.530856 -2.656727)

-------------
DIPOLE MOMENT
-------------
                                X             Y             Z
Electronic contribution:      0.34855       1.04680       2.02057
Nuclear contribution   :     -0.32833      -1.13671      -2.27495
                        -----------------------------------------
Total Dipole Moment    :      0.02022      -0.08991      -0.25439
                        -----------------------------------------
Magnitude (a.u.)       :      0.27057
Magnitude (Debye)      :      0.68772



--------------------
Rotational spectrum 
--------------------
 
Rotational constants in cm-1:     0.006818     0.004940     0.004807 
Rotational constants in MHz :   204.407966   148.083577   144.107986 

 Dipole components along the rotational axes: 
x,y,z [a.u.] :    -0.147803    -0.224389     0.031774 
x,y,z [Debye]:    -0.375687    -0.570351     0.080763 

 

Timings for individual modules:

Sum of individual times         ...     1740.036 sec (=  29.001 min)
GTO integral calculation        ...      145.647 sec (=   2.427 min)   8.4 %
SCF iterations                  ...     1194.348 sec (=  19.906 min)  68.6 %
SCF Gradient evaluation         ...      380.389 sec (=   6.340 min)  21.9 %
Geometry relaxation             ...       19.651 sec (=   0.328 min)   1.1 %
                             ****ORCA TERMINATED NORMALLY****
TOTAL RUN TIME: 0 days 0 hours 31 minutes 0 seconds 1 msec
