
                                 *****************
                                 * O   R   C   A *
                                 *****************

                                            #,                                       
                                            ###                                      
                                            ####                                     
                                            #####                                    
                                            ######                                   
                                           ########,                                 
                                     ,,################,,,,,                         
                               ,,#################################,,                 
                          ,,##########################################,,             
                       ,#########################################, ''#####,          
                    ,#############################################,,   '####,        
                  ,##################################################,,,,####,       
                ,###########''''           ''''###############################       
              ,#####''   ,,,,##########,,,,          '''####'''          '####       
            ,##' ,,,,###########################,,,                        '##       
           ' ,,###''''                  '''############,,,                           
         ,,##''                                '''############,,,,        ,,,,,,###''
      ,#''                                            '''#######################'''  
     '                                                          ''''####''''         
             ,#######,   #######,   ,#######,      ##                                
            ,#'     '#,  ##    ##  ,#'     '#,    #''#        ######   ,####,        
            ##       ##  ##   ,#'  ##            #'  '#       #        #'  '#        
            ##       ##  #######   ##           ,######,      #####,   #    #        
            '#,     ,#'  ##    ##  '#,     ,#' ,#      #,         ##   #,  ,#        
             '#######'   ##     ##  '#######'  #'      '#     #####' # '####'        



                  #######################################################
                  #                        -***-                        #
                  #          Department of theory and spectroscopy      #
                  #    Directorship and core code : Frank Neese         #
                  #        Max Planck Institute fuer Kohlenforschung    #
                  #                Kaiser Wilhelm Platz 1               #
                  #                 D-45470 Muelheim/Ruhr               #
                  #                      Germany                        #
                  #                                                     #
                  #                  All rights reserved                #
                  #                        -***-                        #
                  #######################################################


                         Program Version 5.0.2 -  RELEASE  -


 With contributions from (in alphabetic order):
   Daniel Aravena         : Magnetic Suceptibility
   Michael Atanasov       : Ab Initio Ligand Field Theory (pilot matlab implementation)
   Alexander A. Auer      : GIAO ZORA, VPT2 properties, NMR spectrum
   Ute Becker             : Parallelization
   Giovanni Bistoni       : ED, misc. LED, open-shell LED, HFLD
   Martin Brehm           : Molecular dynamics
   Dmytro Bykov           : SCF Hessian
   Vijay G. Chilkuri      : MRCI spin determinant printing, contributions to CSF-ICE
   Dipayan Datta          : RHF DLPNO-CCSD density
   Achintya Kumar Dutta   : EOM-CC, STEOM-CC
   Dmitry Ganyushin       : Spin-Orbit,Spin-Spin,Magnetic field MRCI
   Miquel Garcia          : C-PCM and meta-GGA Hessian, CC/C-PCM, Gaussian charge scheme
   Yang Guo               : DLPNO-NEVPT2, F12-NEVPT2, CIM, IAO-localization
   Andreas Hansen         : Spin unrestricted coupled pair/coupled cluster methods
   Benjamin Helmich-Paris : MC-RPA, TRAH-SCF, COSX integrals
   Lee Huntington         : MR-EOM, pCC
   Robert Izsak           : Overlap fitted RIJCOSX, COSX-SCS-MP3, EOM
   Marcus Kettner         : VPT2
   Christian Kollmar      : KDIIS, OOCD, Brueckner-CCSD(T), CCSD density, CASPT2, CASPT2-K
   Simone Kossmann        : Meta GGA functionals, TD-DFT gradient, OOMP2, MP2 Hessian
   Martin Krupicka        : Initial AUTO-CI
   Lucas Lang             : DCDCAS
   Marvin Lechner         : AUTO-CI (C++ implementation), FIC-MRCC
   Dagmar Lenk            : GEPOL surface, SMD
   Dimitrios Liakos       : Extrapolation schemes; Compound Job, initial MDCI parallelization
   Dimitrios Manganas     : Further ROCIS development; embedding schemes
   Dimitrios Pantazis     : SARC Basis sets
   Anastasios Papadopoulos: AUTO-CI, single reference methods and gradients
   Taras Petrenko         : DFT Hessian,TD-DFT gradient, ASA, ECA, R-Raman, ABS, FL, XAS/XES, NRVS
   Peter Pinski           : DLPNO-MP2, DLPNO-MP2 Gradient
   Christoph Reimann      : Effective Core Potentials
   Marius Retegan         : Local ZFS, SOC
   Christoph Riplinger    : Optimizer, TS searches, QM/MM, DLPNO-CCSD(T), (RO)-DLPNO pert. Triples
   Tobias Risthaus        : Range-separated hybrids, TD-DFT gradient, RPA, STAB
   Michael Roemelt        : Original ROCIS implementation
   Masaaki Saitow         : Open-shell DLPNO-CCSD energy and density
   Barbara Sandhoefer     : DKH picture change effects
   Avijit Sen             : IP-ROCIS
   Kantharuban Sivalingam : CASSCF convergence, NEVPT2, FIC-MRCI
   Bernardo de Souza      : ESD, SOC TD-DFT
   Georgi Stoychev        : AutoAux, RI-MP2 NMR, DLPNO-MP2 response
   Willem Van den Heuvel  : Paramagnetic NMR
   Boris Wezisla          : Elementary symmetry handling
   Frank Wennmohs         : Technical directorship


 We gratefully acknowledge several colleagues who have allowed us to
 interface, adapt or use parts of their codes:
   Stefan Grimme, W. Hujo, H. Kruse, P. Pracht,  : VdW corrections, initial TS optimization,
                  C. Bannwarth, S. Ehlert          DFT functionals, gCP, sTDA/sTD-DF
   Ed Valeev, F. Pavosevic, A. Kumar             : LibInt (2-el integral package), F12 methods
   Garnet Chan, S. Sharma, J. Yang, R. Olivares  : DMRG
   Ulf Ekstrom                                   : XCFun DFT Library
   Mihaly Kallay                                 : mrcc  (arbitrary order and MRCC methods)
   Jiri Pittner, Ondrej Demel                    : Mk-CCSD
   Frank Weinhold                                : gennbo (NPA and NBO analysis)
   Christopher J. Cramer and Donald G. Truhlar   : smd solvation model
   Lars Goerigk                                  : TD-DFT with DH, B97 family of functionals
   V. Asgeirsson, H. Jonsson                     : NEB implementation
   FAccTs GmbH                                   : IRC, NEB, NEB-TS, DLPNO-Multilevel, CI-OPT
                                                   MM, QMMM, 2- and 3-layer-ONIOM, Crystal-QMMM,
                                                   LR-CPCM, SF, NACMEs, symmetry and pop. for TD-DFT,
                                                   nearIR, NL-DFT gradient (VV10), updates on ESD,
                                                   ML-optimized integration grids
   S Lehtola, MJT Oliveira, MAL Marques          : LibXC Library
   Liviu Ungur et al                             : ANISO software


 Your calculation uses the libint2 library for the computation of 2-el integrals
 For citations please refer to: http://libint.valeyev.net

 Your ORCA version has been built with support for libXC version: 5.1.0
 For citations please refer to: https://tddft.org/programs/libxc/

 This ORCA versions uses:
   CBLAS   interface :  Fast vector & matrix operations
   LAPACKE interface :  Fast linear algebra routines
   SCALAPACK package :  Parallel linear algebra routines
   Shared memory     :  Shared parallel matrices
   BLAS/LAPACK       :  OpenBLAS 0.3.15  USE64BITINT DYNAMIC_ARCH NO_AFFINITY Prescott SINGLE_THREADED
        Core in use  :  Prescott
   Copyright (c) 2011-2014, The OpenBLAS Project


================================================================================

cite the ECPs for Fe [HayWadt] as follows:
H  - Ne: T. H. Dunning Jr. and P. J. Hay, Methods El. Str. Th. Vol. 2, PLENUM PRESS (1977)
Na - Hg: P. J. Hay and W. R. Wadt, J. Chem. Phys. 82, 270 (1985)
P. J. Hay and W. R. Wadt, J. Chem. Phys. 82, 284 (1985)
P. J. Hay and W. R. Wadt, J. Chem. Phys. 82, 299 (1985)


ECP parameters for Fe [HayWadt] have been obtained from:
LANL2DZ ECP  EMSL  Basis Set Exchange Library   5/31/16 12:35 AM

----- Orbital basis set information -----
Your calculation utilizes the basis: LANL2DZ 
   H - Ne   : T. H. Dunning Jr. and P. J. Hay, Methods of Electronic Structure Theory, Vol. 2, ed. H. F. Schaefer III, Plenum Press (1977).
   Na - Hg  : P. J. Hay and W. R. Wadt, J. Chem. Phys. 82, 270 (1985).
              P. J. Hay and W. R. Wadt, J. Chem. Phys. 82, 284 (1985).
              P. J. Hay and W. R. Wadt, J. Chem. Phys. 82, 299 (1985).

----- AuxJ basis set information -----
Your calculation utilizes the auxiliary basis: def2/J
   F. Weigend, Phys. Chem. Chem. Phys. 8, 1057 (2006).

================================================================================
                                        WARNINGS
                       Please study these warnings very carefully!
================================================================================


INFO   : the flag for use of the SHARK integral package has been found!

================================================================================
                                       INPUT FILE
================================================================================
NAME = FeCP2_plus2_small_fc.orca
|  1> ! B3LYP lanl2dz Freq
|  2> 
|  3> %pal
|  4> nprocs 16
|  5> end
|  6> 
|  7> %maxcore 8192
|  8> 
|  9> * xyz 0 1
| 10> Fe  -5.813556  -3.840429  -1.541359
| 11> H  -5.284290  -1.364379  -2.917879
| 12> C  -5.531688  -1.776113  -1.948973
| 13> H  -7.787107  -1.779068  -1.952460
| 14> H  -3.511093  -2.185487  -1.032548
| 15> C  -6.862434  -1.996932  -1.435666
| 16> C  -4.588746  -2.212575  -0.946681
| 17> C  -6.742313  -2.569518  -0.115912
| 18> C  -5.337082  -2.702118  0.186424
| 19> H  -7.561501  -2.855192  0.529725
| 20> H  -4.918681  -3.106578  1.097918
| 21> H  -4.919503  -4.571976  -4.181551
| 22> C  -5.335874  -4.977509  -3.269608
| 23> H  -7.561042  -4.830272  -3.610615
| 24> H  -3.507312  -5.489366  -2.052426
| 25> C  -6.740439  -5.113752  -2.965805
| 26> C  -4.585113  -5.465070  -2.137262
| 27> C  -6.857731  -5.686627  -1.645943
| 28> C  -5.525853  -5.904008  -1.133989
| 29> H  -7.781217  -5.906926  -1.128057
| 30> H  -5.276426  -6.315106  -0.165334
| 31> **                         ****END OF INPUT****
================================================================================

                       ****************************
                       * Single Point Calculation *
                       ****************************

---------------------------------
CARTESIAN COORDINATES (ANGSTROEM)
---------------------------------
  Fe    -5.813556   -3.840429   -1.541359
  H     -5.284290   -1.364379   -2.917879
  C     -5.531688   -1.776113   -1.948973
  H     -7.787107   -1.779068   -1.952460
  H     -3.511093   -2.185487   -1.032548
  C     -6.862434   -1.996932   -1.435666
  C     -4.588746   -2.212575   -0.946681
  C     -6.742313   -2.569518   -0.115912
  C     -5.337082   -2.702118    0.186424
  H     -7.561501   -2.855192    0.529725
  H     -4.918681   -3.106578    1.097918
  H     -4.919503   -4.571976   -4.181551
  C     -5.335874   -4.977509   -3.269608
  H     -7.561042   -4.830272   -3.610615
  H     -3.507312   -5.489366   -2.052426
  C     -6.740439   -5.113752   -2.965805
  C     -4.585113   -5.465070   -2.137262
  C     -6.857731   -5.686627   -1.645943
  C     -5.525853   -5.904008   -1.133989
  H     -7.781217   -5.906926   -1.128057
  H     -5.276426   -6.315106   -0.165334

----------------------------
CARTESIAN COORDINATES (A.U.)
----------------------------
  NO LB      ZA    FRAG     MASS         X           Y           Z
   0 Fe   16.0000*   0    55.850  -10.986029   -7.257359   -2.912746
   1 H     1.0000    0     1.008   -9.985861   -2.578303   -5.513992
   2 C     6.0000    0    12.011  -10.453375   -3.356367   -3.683025
   3 H     1.0000    0     1.008  -14.715500   -3.361951   -3.689615
   4 H     1.0000    0     1.008   -6.635004   -4.129972   -1.951233
   5 C     6.0000    0    12.011  -12.968121   -3.773655   -2.713016
   6 C     6.0000    0    12.011   -8.671473   -4.181161   -1.788968
   7 C     6.0000    0    12.011  -12.741125   -4.855685   -0.219042
   8 C     6.0000    0    12.011  -10.085623   -5.106263    0.352290
   9 H     1.0000    0     1.008  -14.289166   -5.395531    1.001035
  10 H     1.0000    0     1.008   -9.294960   -5.870582    2.074764
  11 H     1.0000    0     1.008   -9.296513   -8.639783   -7.901986
  12 C     6.0000    0    12.011  -10.083341   -9.406129   -6.178664
  13 H     1.0000    0     1.008  -14.288299   -9.127891   -6.823074
  14 H     1.0000    0     1.008   -6.627859  -10.373398   -3.878523
  15 C     6.0000    0    12.011  -12.737584   -9.663591   -5.604559
  16 C     6.0000    0    12.011   -8.664608  -10.327486   -4.038840
  17 C     6.0000    0    12.011  -12.959233  -10.746168   -3.110382
  18 C     6.0000    0    12.011  -10.442349  -11.156958   -2.142929
  19 H     1.0000    0     1.008  -14.704369  -11.162472   -2.131719
  20 H     1.0000    0     1.008   -9.971000  -11.933821   -0.312436
* core charge reduced due to ECP

--------------------------------
INTERNAL COORDINATES (ANGSTROEM)
--------------------------------
 Fe     0   0   0     0.000000000000     0.00000000     0.00000000
 H      1   0   0     2.881970404369     0.00000000     0.00000000
 C      2   1   0     1.081438622390    37.15109011     0.00000000
 H      3   2   1     2.255423631328   103.17232995   270.23411964
 H      3   2   1     2.256152921795   103.18650516    89.64886822
 C      4   3   2     1.081462397803    31.18564131   179.96877591
 C      5   3   2     1.081407827714    31.16442171   179.99405584
 C      6   4   3     1.443618510048   126.00897725   180.53327356
 C      7   5   3     1.443463216979   125.97673013   179.44722960
 H      8   6   4     1.081446137997   125.98210509   359.95229623
 H      9   7   5     1.081419715206   126.00852020   359.96059658
 H      1   2   3     2.881858007759    73.95093920   187.96379405
 C     12   1   2     1.081416598254    37.17204258   187.73275794
 H     13  12   1     2.255955925199   103.16902341    89.75170145
 H     13  12   1     2.255475248682   103.18173105   270.34790886
 C     14  13  12     1.081448163394    31.16501367   180.11210034
 C     15  13  12     1.081407618853    31.19029096   179.96778351
 C     16  14  13     1.443599278863   125.98055813   179.54817094
 C     18  16  14     1.443346945180   108.00433164   180.40142212
 H     18  16  14     1.081463799946   126.01854735   359.94705726
 H     19  18  16     1.081437886778   126.00044766   179.50959069

---------------------------
INTERNAL COORDINATES (A.U.)
---------------------------
 Fe     0   0   0     0.000000000000     0.00000000     0.00000000
 H      1   0   0     5.446134790323     0.00000000     0.00000000
 C      2   1   0     2.043622826961    37.15109011     0.00000000
 H      3   2   1     4.262132979185   103.17232995   270.23411964
 H      3   2   1     4.263511138440   103.18650516    89.64886822
 C      4   3   2     2.043667755981    31.18564131   179.96877591
 C      5   3   2     2.043564633459    31.16442171   179.99405584
 C      6   4   3     2.728043625850   126.00897725   180.53327356
 C      7   5   3     2.727750164478   125.97673013   179.44722960
 H      8   6   4     2.043637029401   125.98210509   359.95229623
 H      9   7   5     2.043587097563   126.00852020   359.96059658
 H      1   2   3     5.445922391512    73.95093920   187.96379405
 C     12   1   2     2.043581207377    37.17204258   187.73275794
 H     13  12   1     4.263138868824   103.16902341    89.75170145
 H     13  12   1     4.262230521847   103.18173105   270.34790886
 C     14  13  12     2.043640856847    31.16501367   180.11210034
 C     15  13  12     2.043564238768    31.19029096   179.96778351
 C     16  14  13     2.728007284177   125.98055813   179.54817094
 C     18  16  14     2.727530442622   108.00433164   180.40142212
 H     18  16  14     2.043670405647   126.01854735   359.94705726
 H     19  18  16     2.043621436856   126.00044766   179.50959069

---------------------
BASIS SET INFORMATION
---------------------
There are 3 groups of distinct atoms

 Group   1 Type Fe  : 8s5p5d contracted to 3s3p2d pattern {341/311/41}
 Group   2 Type H   : 4s contracted to 2s pattern {31}
 Group   3 Type C   : 10s5p contracted to 3s2p pattern {721/41}

Atom   0Fe   basis set group =>   1
Atom   1H    basis set group =>   2
Atom   2C    basis set group =>   3
Atom   3H    basis set group =>   2
Atom   4H    basis set group =>   2
Atom   5C    basis set group =>   3
Atom   6C    basis set group =>   3
Atom   7C    basis set group =>   3
Atom   8C    basis set group =>   3
Atom   9H    basis set group =>   2
Atom  10H    basis set group =>   2
Atom  11H    basis set group =>   2
Atom  12C    basis set group =>   3
Atom  13H    basis set group =>   2
Atom  14H    basis set group =>   2
Atom  15C    basis set group =>   3
Atom  16C    basis set group =>   3
Atom  17C    basis set group =>   3
Atom  18C    basis set group =>   3
Atom  19H    basis set group =>   2
Atom  20H    basis set group =>   2
---------------------------------
AUXILIARY/J BASIS SET INFORMATION
---------------------------------
There are 3 groups of distinct atoms

 Group   1 Type Fe  : 19s5p5d3f3g contracted to 8s5p5d2f3g pattern {121111111/11111/11111/21/111}
 Group   2 Type H   : 5s2p1d contracted to 3s1p1d pattern {311/2/1}
 Group   3 Type C   : 12s5p4d2f1g contracted to 6s4p3d1f1g pattern {711111/2111/211/2/1}

Atom   0Fe   basis set group =>   1
Atom   1H    basis set group =>   2
Atom   2C    basis set group =>   3
Atom   3H    basis set group =>   2
Atom   4H    basis set group =>   2
Atom   5C    basis set group =>   3
Atom   6C    basis set group =>   3
Atom   7C    basis set group =>   3
Atom   8C    basis set group =>   3
Atom   9H    basis set group =>   2
Atom  10H    basis set group =>   2
Atom  11H    basis set group =>   2
Atom  12C    basis set group =>   3
Atom  13H    basis set group =>   2
Atom  14H    basis set group =>   2
Atom  15C    basis set group =>   3
Atom  16C    basis set group =>   3
Atom  17C    basis set group =>   3
Atom  18C    basis set group =>   3
Atom  19H    basis set group =>   2
Atom  20H    basis set group =>   2
-------------------------
ECP PARAMETER INFORMATION
-------------------------

 Group 1, Type Fe ECP HayWadt (replacing 10 core electrons, lmax=2)

Atom   0Fe   ECP group =>   1



           ************************************************************
           *        Program running with 16 parallel MPI-processes    *
           *              working on a common directory               *
           ************************************************************
------------------------------------------------------------------------------
                           ORCA GTO INTEGRAL CALCULATION
                           -- RI-GTO INTEGRALS CHOSEN --
------------------------------------------------------------------------------
------------------------------------------------------------------------------
                   ___                                                        
                  /   \      - P O W E R E D   B Y -                         
                 /     \                                                     
                 |  |  |   _    _      __       _____    __    __             
                 |  |  |  | |  | |    /  \     |  _  \  |  |  /  |          
                  \  \/   | |  | |   /    \    | | | |  |  | /  /          
                 / \  \   | |__| |  /  /\  \   | |_| |  |  |/  /          
                |  |  |   |  __  | /  /__\  \  |    /   |      \           
                |  |  |   | |  | | |   __   |  |    \   |  |\   \          
                \     /   | |  | | |  |  |  |  | |\  \  |  | \   \       
                 \___/    |_|  |_| |__|  |__|  |_| \__\ |__|  \__/        
                                                                              
                      - O R C A' S   B I G   F R I E N D -                    
                                      &                                       
                       - I N T E G R A L  F E E D E R -                       
                                                                              
 v1 FN, 2020, v2 2021                                                         
------------------------------------------------------------------------------


Reading SHARK input file FeCP2_plus2_small_fc.orca.SHARKINP.tmp ... ok
----------------------
SHARK INTEGRAL PACKAGE
----------------------

Number of atoms                             ...     21
Number of basis functions                   ...    132
Number of shells                            ...     78
Maximum angular momentum                    ...      2
Integral batch strategy                     ... SHARK/LIBINT Hybrid
RI-J (if used) integral strategy            ... SPLIT-RIJ (Revised 2003 algorithm where possible)
Printlevel                                  ...      1
Contraction scheme used                     ... SEGMENTED contraction
Coulomb Range Separation                    ... NOT USED
Exchange Range Separation                   ... NOT USED
Finite Nucleus Model                        ... NOT USED
Auxiliary Coulomb fitting basis             ... AVAILABLE
   # of basis functions in Aux-J            ...    689
   # of shells in Aux-J                     ...    223
   Maximum angular momentum in Aux-J        ...      4
Auxiliary J/K fitting basis                 ... NOT available
Auxiliary Correlation fitting basis         ... NOT available
Auxiliary 'external' fitting basis          ... NOT available
Integral threshold                          ...     1.000000e-10
Primitive cut-off                           ...     1.000000e-11
Primitive pair pre-selection threshold      ...     1.000000e-11

Calculating pre-screening integrals         ... done (  0.0 sec) Dimension = 78
Organizing shell pair data                  ... done (  0.2 sec)
Shell pair information
Total number of shell pairs                 ...      3081
Shell pairs after pre-screening             ...      2982
Total number of primitive shell pairs       ...     22064
Primitive shell pairs kept                  ...     13420
          la=0 lb=0:   1332 shell pairs
          la=1 lb=0:   1219 shell pairs
          la=1 lb=1:    276 shell pairs
          la=2 lb=0:    106 shell pairs
          la=2 lb=1:     46 shell pairs
          la=2 lb=2:      3 shell pairs

Calculating one electron integrals          ... done (  0.0 sec)
Calculating ECP integrals                   ... done (  0.3 sec)
Calculating RI/J V-Matrix + Cholesky decomp.... done (  0.3 sec)
Calculating Nuclear repulsion               ... done (  0.0 sec) ENN=    725.698792489624 Eh

SHARK setup successfully completed in   1.6 seconds

Maximum memory used throughout the entire GTOINT-calculation: 14.7 MB


           ************************************************************
           *        Program running with 16 parallel MPI-processes    *
           *              working on a common directory               *
           ************************************************************
-------------------------------------------------------------------------------
                                 ORCA SCF
-------------------------------------------------------------------------------

------------
SCF SETTINGS
------------
Hamiltonian:
 Density Functional     Method          .... DFT(GTOs)
 Exchange Functional    Exchange        .... B88
   X-Alpha parameter    XAlpha          ....  0.666667
   Becke's b parameter  XBeta           ....  0.004200
 Correlation Functional Correlation     .... LYP
 LDA part of GGA corr.  LDAOpt          .... VWN-5
 Gradients option       PostSCFGGA      .... off
 Hybrid DFT is turned on
   Fraction HF Exchange ScalHFX         ....  0.200000
   Scaling of DF-GGA-X  ScalDFX         ....  0.720000
   Scaling of DF-GGA-C  ScalDFC         ....  0.810000
   Scaling of DF-LDA-C  ScalLDAC        ....  1.000000
   Perturbative correction              ....  0.000000
   Density functional embedding theory  .... OFF
   NL short-range parameter             ....  4.800000
 RI-approximation to the Coulomb term is turned on
   Number of AuxJ basis functions       .... 689
   RIJ-COSX (HFX calculated with COS-X)).... on


General Settings:
 Integral files         IntName         .... FeCP2_plus2_small_fc.orca
 Hartree-Fock type      HFTyp           .... RHF
 Total Charge           Charge          ....    0
 Multiplicity           Mult            ....    1
 Number of Electrons    NEL             ....   86
 Basis Dimension        Dim             ....  132
 Nuclear Repulsion      ENuc            ....    725.6987924896 Eh

Convergence Acceleration:
 DIIS                   CNVDIIS         .... on
   Start iteration      DIISMaxIt       ....    12
   Startup error        DIISStart       ....  0.200000
   # of expansion vecs  DIISMaxEq       ....     5
   Bias factor          DIISBfac        ....   1.050
   Max. coefficient     DIISMaxC        ....  10.000
 Trust-Rad. Augm. Hess. CNVTRAH         .... auto
   Auto Start mean grad. ratio tolernc. ....  1.125000
   Auto Start start iteration           ....    20
   Auto Start num. interpolation iter.  ....    10
   Max. Number of Micro iterations      ....    16
   Max. Number of Macro iterations      .... Maxiter - #DIIS iter
   Number of Davidson start vectors     ....     2
   Converg. threshold I  (grad. norm)   ....   5.000e-05
   Converg. threshold II (energy diff.) ....   1.000e-06
   Grad. Scal. Fac. for Micro threshold ....   0.100
   Minimum threshold for Micro iter.    ....   0.010
   NR start threshold (gradient norm)   ....   0.001
   Initial trust radius                 ....   0.400
   Minimum AH scaling param. (alpha)    ....   1.000
   Maximum AH scaling param. (alpha)    .... 1000.000
   Orbital update algorithm             .... Taylor
   White noise on init. David. guess    .... on
   Maximum white noise                  ....   0.010
   Quad. conv. algorithm                .... NR
 SOSCF                  CNVSOSCF        .... off
 Level Shifting         CNVShift        .... on
   Level shift para.    LevelShift      ....    0.2500
   Turn off err/grad.   ShiftErr        ....    0.0010
 Zerner damping         CNVZerner       .... off
 Static damping         CNVDamp         .... on
   Fraction old density DampFac         ....    0.7000
   Max. Damping (<1)    DampMax         ....    0.9800
   Min. Damping (>=0)   DampMin         ....    0.0000
   Turn off err/grad.   DampErr         ....    0.1000
 Fernandez-Rico         CNVRico         .... off

SCF Procedure:
 Maximum # iterations   MaxIter         ....   125
 SCF integral mode      SCFMode         .... Direct
   Integral package                     .... SHARK and LIBINT hybrid scheme
 Reset frequency        DirectResetFreq ....    20
 Integral Threshold     Thresh          ....  1.000e-10 Eh
 Primitive CutOff       TCut            ....  1.000e-11 Eh

Convergence Tolerance:
 Convergence Check Mode ConvCheckMode   .... Total+1el-Energy
 Convergence forced     ConvForced      .... 0
 Energy Change          TolE            ....  1.000e-06 Eh
 1-El. energy change                    ....  1.000e-03 Eh
 DIIS Error             TolErr          ....  1.000e-06


Diagonalization of the overlap matrix:
Smallest eigenvalue                        ... 2.367e-03
Time for diagonalization                   ...    0.003 sec
Threshold for overlap eigenvalues          ... 1.000e-08
Number of eigenvalues below threshold      ... 0
Time for construction of square roots      ...    0.056 sec
Total time needed                          ...    0.060 sec

Time for model grid setup =    0.940 sec

------------------------------
INITIAL GUESS: MODEL POTENTIAL
------------------------------
Loading Hartree-Fock densities                     ... done
  calling /opt/orca/5.0.2/orca FeCP2_plus2_small_fc.orca_atom26.inp > FeCP2_plus2_small_fc.orca_atom26.out in order to generate an atomic fitting density for atom 0 (Fe with ECP) on-the-fly... 
    atom 0 (Fe), assumed electronic state with S=5: 1s2 2s2 2p6 3s2 3p6 4s2 3d6           ... done
Calculating cut-offs                               ... done
Initializing the effective Hamiltonian             ... done
Setting up the integral package (SHARK)            ... done
Starting the Coulomb interaction                   ... done (   0.1 sec)
Reading the grid                                   ... done
Mapping shells                                     ... done
Starting the XC term evaluation                    ... done (   0.0 sec)
  promolecular density results
     # of electrons  =     95.997691536
     EX              =   -108.962188224
     EC              =     -3.539656950
     EX+EC           =   -112.501845174
Transforming the Hamiltonian                       ... done (   0.0 sec)
Diagonalizing the Hamiltonian                      ... done (   0.0 sec)
Back transforming the eigenvectors                 ... done (   0.0 sec)
Now organizing SCF variables                       ... done
                      ------------------
                      INITIAL GUESS DONE (   4.4 sec)
                      ------------------
-------------------
DFT GRID GENERATION
-------------------

General Integration Accuracy     IntAcc      ... 4.388
Radial Grid Type                 RadialGrid  ... OptM3 with GC (2021)
Angular Grid (max. ang.)         AngularGrid ... 4 (Lebedev-302)
Angular grid pruning method      GridPruning ... 4 (adaptive)
Weight generation scheme         WeightScheme... Becke
Basis function cutoff            BFCut       ... 1.0000e-10
Integration weight cutoff        WCut        ... 1.0000e-14
Angular grids for H and He will be reduced by one unit
Partially contracted basis set               ... off
Rotationally invariant grid construction     ... off

Total number of grid points                  ...   100096
Total number of batches                      ...     1573
Average number of points per batch           ...       63
Average number of grid points per atom       ...     4766
Time for grid setup =    1.216 sec

--------------------
COSX GRID GENERATION
--------------------

GRIDX 1
-------
General Integration Accuracy     IntAcc      ... 3.816
Radial Grid Type                 RadialGrid  ... OptM3 with GC (2021)
Angular Grid (max. ang.)         AngularGrid ... 1 (Lebedev-50)
Angular grid pruning method      GridPruning ... 4 (adaptive)
Weight generation scheme         WeightScheme... Becke
Basis function cutoff            BFCut       ... 1.0000e-10
Integration weight cutoff        WCut        ... 1.0000e-14
Angular grids for H and He will be reduced by one unit
Partially contracted basis set               ... on
Rotationally invariant grid construction     ... off

Total number of grid points                  ...    12756
Total number of batches                      ...      207
Average number of points per batch           ...       61
Average number of grid points per atom       ...      607
UseSFitting                                  ... on

GRIDX 2
-------
General Integration Accuracy     IntAcc      ... 4.020
Radial Grid Type                 RadialGrid  ... OptM3 with GC (2021)
Angular Grid (max. ang.)         AngularGrid ... 2 (Lebedev-110)
Angular grid pruning method      GridPruning ... 4 (adaptive)
Weight generation scheme         WeightScheme... Becke
Basis function cutoff            BFCut       ... 1.0000e-10
Integration weight cutoff        WCut        ... 1.0000e-14
Angular grids for H and He will be reduced by one unit
Partially contracted basis set               ... on
Rotationally invariant grid construction     ... off

Total number of grid points                  ...    27454
Total number of batches                      ...      441
Average number of points per batch           ...       62
Average number of grid points per atom       ...     1307
UseSFitting                                  ... on

GRIDX 3
-------
General Integration Accuracy     IntAcc      ... 4.338
Radial Grid Type                 RadialGrid  ... OptM3 with GC (2021)
Angular Grid (max. ang.)         AngularGrid ... 3 (Lebedev-194)
Angular grid pruning method      GridPruning ... 4 (adaptive)
Weight generation scheme         WeightScheme... Becke
Basis function cutoff            BFCut       ... 1.0000e-10
Integration weight cutoff        WCut        ... 1.0000e-14
Angular grids for H and He will be reduced by one unit
Partially contracted basis set               ... on
Rotationally invariant grid construction     ... off

Total number of grid points                  ...    59937
Total number of batches                      ...      945
Average number of points per batch           ...       63
Average number of grid points per atom       ...     2854
UseSFitting                                  ... on

Time for X-Grid setup             =    2.304 sec

--------------
SCF ITERATIONS
--------------
ITER       Energy         Delta-E        Max-DP      RMS-DP      [F,P]     Damp
               ***  Starting incremental Fock matrix formation  ***
  0   -509.5571995796   0.000000000000 0.34142091  0.00778781  0.4111171 0.7000
  1   -509.8126500305  -0.255450450876 0.06143853  0.00262333  0.1397636 0.7000
                               ***Turning on DIIS***
  2   -509.8945178895  -0.081867858987 0.08948737  0.00247883  0.1374639 0.7000
  3   -509.9659554796  -0.071437590114 0.11907720  0.00295291  0.0342224 0.0000
  4   -510.0914475635  -0.125492083884 0.01552117  0.00048516  0.1399415 0.7000
  5   -510.1034389963  -0.011991432878 0.01722757  0.00054103  0.1101342 0.7000
  6   -510.1133426967  -0.009903700350 0.04857759  0.00153022  0.0781555 0.0000
  7   -510.1259769878  -0.012634291083 0.00625801  0.00019532  0.0083784 0.0000
  8   -510.1262224738  -0.000245486012 0.00298446  0.00011330  0.0034616 0.0000
  9   -510.1262908823  -0.000068408484 0.00243825  0.00007081  0.0022898 0.0000
 10   -510.1263192865  -0.000028404274 0.00223113  0.00007831  0.0005356 0.0000
               *** Restarting incremental Fock matrix formation ***
                                   *** Resetting DIIS ***
 11   -510.1262902554   0.000029031171 0.00066819  0.00003184  0.0001237 0.0000
 12   -510.1262886913   0.000001564061 0.00027930  0.00000809  0.0010334 0.0000
 13   -510.1262902708  -0.000001579513 0.00024266  0.00000840  0.0003859 0.0000
 14   -510.1262906342  -0.000000363380 0.00008908  0.00000217  0.0001284 0.0000
                 **** Energy Check signals convergence ****

               *****************************************************
               *                     SUCCESS                       *
               *           SCF CONVERGED AFTER  15 CYCLES          *
               *****************************************************

Old exchange energy                            =    -13.484749075 Eh
New exchange energy                            =    -13.484715846 Eh
Exchange energy change after final integration =      0.000033229 Eh
Total energy after final integration           =   -510.126257436 Eh
Final COS-X integration done in                =     0.656 sec

----------------
TOTAL SCF ENERGY
----------------

Total Energy       :         -510.12625744 Eh          -13881.24117 eV

Components:
Nuclear Repulsion  :          725.69879249 Eh           19747.26808 eV
Electronic Energy  :        -1235.82504993 Eh          -33628.50925 eV
One Electron Energy:        -2179.78991355 Eh          -59315.09907 eV
Two Electron Energy:          943.96486363 Eh           25686.58982 eV
Max COSX asymmetry :            0.00000434 Eh               0.00012 eV

Virial components:
Potential Energy   :         -965.10976006 Eh          -26261.97170 eV
Kinetic Energy     :          454.98350262 Eh           12380.73053 eV
Virial Ratio       :            2.12119726


DFT components:
N(Alpha)           :       42.999985218183 electrons
N(Beta)            :       42.999985218183 electrons
N(Total)           :       85.999970436366 electrons
E(X)               :      -53.860404232892 Eh       
E(C)               :       -3.473347570405 Eh       
E(XC)              :      -57.333751803297 Eh       
DFET-embed. en.    :        0.000000000000 Eh       

---------------
SCF CONVERGENCE
---------------

  Last Energy change         ...   -3.0440e-08  Tolerance :   1.0000e-06
  Last MAX-Density change    ...    0.0000e+00  Tolerance :   1.0000e-05
  Last RMS-Density change    ...    0.0000e+00  Tolerance :   1.0000e-06
  Last DIIS Error            ...    2.6341e-05  Tolerance :   1.0000e-06

             **** THE GBW FILE WAS UPDATED (FeCP2_plus2_small_fc.orca.gbw) ****
             **** DENSITY FeCP2_plus2_small_fc.orca.scfp WAS UPDATED ****
             **** ENERGY FILE WAS UPDATED (FeCP2_plus2_small_fc.orca.en.tmp) ****
             **** THE GBW FILE WAS UPDATED (FeCP2_plus2_small_fc.orca.gbw) ****
             **** DENSITY FeCP2_plus2_small_fc.orca.scfp WAS UPDATED ****
----------------
ORBITAL ENERGIES
----------------

  NO   OCC          E(Eh)            E(eV) 
   0   2.0000     -10.197994      -277.5015 
   1   2.0000     -10.197977      -277.5011 
   2   2.0000     -10.197753      -277.4950 
   3   2.0000     -10.197746      -277.4948 
   4   2.0000     -10.197703      -277.4936 
   5   2.0000     -10.197695      -277.4934 
   6   2.0000     -10.197288      -277.4823 
   7   2.0000     -10.197286      -277.4823 
   8   2.0000     -10.197274      -277.4819 
   9   2.0000     -10.197272      -277.4819 
  10   2.0000      -3.445142       -93.7471 
  11   2.0000      -2.256933       -61.4143 
  12   2.0000      -2.205609       -60.0177 
  13   2.0000      -2.205607       -60.0176 
  14   2.0000      -0.888380       -24.1740 
  15   2.0000      -0.874779       -23.8040 
  16   2.0000      -0.709540       -19.3076 
  17   2.0000      -0.709525       -19.3072 
  18   2.0000      -0.708379       -19.2760 
  19   2.0000      -0.708361       -19.2755 
  20   2.0000      -0.543202       -14.7813 
  21   2.0000      -0.543150       -14.7799 
  22   2.0000      -0.536993       -14.6123 
  23   2.0000      -0.536981       -14.6120 
  24   2.0000      -0.532242       -14.4830 
  25   2.0000      -0.521637       -14.1945 
  26   2.0000      -0.408328       -11.1112 
  27   2.0000      -0.408295       -11.1103 
  28   2.0000      -0.404497       -11.0069 
  29   2.0000      -0.401620       -10.9286 
  30   2.0000      -0.401608       -10.9283 
  31   2.0000      -0.377690       -10.2775 
  32   2.0000      -0.377666       -10.2768 
  33   2.0000      -0.374579       -10.1928 
  34   2.0000      -0.374552       -10.1921 
  35   2.0000      -0.356085        -9.6896 
  36   2.0000      -0.264050        -7.1852 
  37   2.0000      -0.263853        -7.1798 
  38   2.0000      -0.243996        -6.6395 
  39   2.0000      -0.243972        -6.6388 
  40   2.0000      -0.242121        -6.5885 
  41   2.0000      -0.198621        -5.4047 
  42   2.0000      -0.198607        -5.4044 
  43   0.0000      -0.016625        -0.4524 
  44   0.0000      -0.016179        -0.4403 
  45   0.0000       0.015784         0.4295 
  46   0.0000       0.015907         0.4329 
  47   0.0000       0.026775         0.7286 
  48   0.0000       0.054679         1.4879 
  49   0.0000       0.056401         1.5347 
  50   0.0000       0.056447         1.5360 
  51   0.0000       0.059299         1.6136 
  52   0.0000       0.059331         1.6145 
  53   0.0000       0.137262         3.7351 
  54   0.0000       0.137271         3.7353 
  55   0.0000       0.170181         4.6309 
  56   0.0000       0.170198         4.6313 
  57   0.0000       0.183212         4.9855 
  58   0.0000       0.183229         4.9859 
  59   0.0000       0.185897         5.0585 
  60   0.0000       0.186601         5.0777 
  61   0.0000       0.195987         5.3331 
  62   0.0000       0.196063         5.3351 
  63   0.0000       0.231853         6.3090 
  64   0.0000       0.231967         6.3122 
  65   0.0000       0.242278         6.5927 
  66   0.0000       0.242314         6.5937 
  67   0.0000       0.267042         7.2666 
  68   0.0000       0.279733         7.6119 
  69   0.0000       0.279869         7.6156 
  70   0.0000       0.281153         7.6506 
  71   0.0000       0.281226         7.6526 
  72   0.0000       0.316976         8.6253 
  73   0.0000       0.317141         8.6298 
  74   0.0000       0.323719         8.8088 
  75   0.0000       0.323759         8.8099 
  76   0.0000       0.333982         9.0881 
  77   0.0000       0.359922         9.7940 
  78   0.0000       0.372984        10.1494 
  79   0.0000       0.373445        10.1619 
  80   0.0000       0.373995        10.1769 
  81   0.0000       0.374006        10.1772 
  82   0.0000       0.380705        10.3595 
  83   0.0000       0.394290        10.7292 
  84   0.0000       0.395530        10.7629 
  85   0.0000       0.395684        10.7671 
  86   0.0000       0.409558        11.1447 
  87   0.0000       0.409777        11.1506 
  88   0.0000       0.468366        12.7449 
  89   0.0000       0.568471        15.4689 
  90   0.0000       0.568567        15.4715 
  91   0.0000       0.592579        16.1249 
  92   0.0000       0.592739        16.1292 
  93   0.0000       0.593023        16.1370 
  94   0.0000       0.593105        16.1392 
  95   0.0000       0.622267        16.9327 
  96   0.0000       0.622312        16.9340 
  97   0.0000       0.652646        17.7594 
  98   0.0000       0.653061        17.7707 
  99   0.0000       0.667620        18.1669 
 100   0.0000       0.681081        18.5332 
 101   0.0000       0.681294        18.5390 
 102   0.0000       0.681327        18.5398 
 103   0.0000       0.724963        19.7272 
 104   0.0000       0.725060        19.7299 
 105   0.0000       0.740500        20.1500 
 106   0.0000       0.773940        21.0600 
 107   0.0000       0.846230        23.0271 
 108   0.0000       0.846532        23.0353 
 109   0.0000       1.041096        28.3297 
 110   0.0000       1.086864        29.5751 
 111   0.0000       1.087022        29.5794 
 112   0.0000       1.105837        30.0914 
 113   0.0000       1.106140        30.0996 
 114   0.0000       1.150061        31.2947 
 115   0.0000       1.150945        31.3188 
 116   0.0000       1.210138        32.9295 
 117   0.0000       1.215091        33.0643 
 118   0.0000       1.215164        33.0663 
 119   0.0000       1.218865        33.1670 
 120   0.0000       1.241961        33.7955 
 121   0.0000       1.241992        33.7963 
 122   0.0000       1.270128        34.5620 
 123   0.0000       1.270218        34.5644 
 124   0.0000       1.345563        36.6146 
 125   0.0000       1.345754        36.6198 
 126   0.0000       1.367388        37.2085 
 127   0.0000       1.467384        39.9296 
 128   0.0000       1.468681        39.9648 
 129   0.0000       1.536734        41.8167 
 130   0.0000       1.537517        41.8380 
 131   0.0000       5.867861       159.6726 

                    ********************************
                    * MULLIKEN POPULATION ANALYSIS *
                    ********************************

-----------------------
MULLIKEN ATOMIC CHARGES
-----------------------
   0 Fe:   -0.116651
   1 H :    0.247493
   2 C :   -0.235759
   3 H :    0.247167
   4 H :    0.247539
   5 C :   -0.235318
   6 C :   -0.235961
   7 C :   -0.235880
   8 C :   -0.235818
   9 H :    0.247214
  10 H :    0.247644
  11 H :    0.247653
  12 C :   -0.235821
  13 H :    0.247218
  14 H :    0.247541
  15 C :   -0.235885
  16 C :   -0.235970
  17 C :   -0.235317
  18 C :   -0.235748
  19 H :    0.247165
  20 H :    0.247495
Sum of atomic charges:   -0.0000000

--------------------------------
MULLIKEN REDUCED ORBITAL CHARGES
--------------------------------
  0 Fes       :     2.418392  s :     2.418392
      pz      :     2.190245  p :     6.489768
      px      :     2.214886
      py      :     2.084637
      dz2     :     1.420178  d :     7.208492
      dxz     :     1.650203
      dyz     :     1.407692
      dx2y2   :     1.766054
      dxy     :     0.964364
  1 H s       :     0.752507  s :     0.752507
  2 C s       :     3.260180  s :     3.260180
      pz      :     1.060161  p :     2.975579
      px      :     0.876256
      py      :     1.039162
  3 H s       :     0.752833  s :     0.752833
  4 H s       :     0.752461  s :     0.752461
  5 C s       :     3.260277  s :     3.260277
      pz      :     0.929512  p :     2.975041
      px      :     1.041841
      py      :     1.003688
  6 C s       :     3.260201  s :     3.260201
      pz      :     0.886963  p :     2.975760
      px      :     1.103674
      py      :     0.985123
  7 C s       :     3.260138  s :     3.260138
      pz      :     0.987981  p :     2.975742
      px      :     1.001374
      py      :     0.986388
  8 C s       :     3.260112  s :     3.260112
      pz      :     1.076523  p :     2.975706
      px      :     0.901822
      py      :     0.997360
  9 H s       :     0.752786  s :     0.752786
 10 H s       :     0.752356  s :     0.752356
 11 H s       :     0.752347  s :     0.752347
 12 C s       :     3.260101  s :     3.260101
      pz      :     1.076699  p :     2.975720
      px      :     0.901519
      py      :     0.997502
 13 H s       :     0.752782  s :     0.752782
 14 H s       :     0.752459  s :     0.752459
 15 C s       :     3.260123  s :     3.260123
      pz      :     0.987748  p :     2.975762
      px      :     1.001768
      py      :     0.986245
 16 C s       :     3.260196  s :     3.260196
      pz      :     0.886944  p :     2.975774
      px      :     1.103872
      py      :     0.984958
 17 C s       :     3.260285  s :     3.260285
      pz      :     0.929689  p :     2.975032
      px      :     1.041313
      py      :     1.004031
 18 C s       :     3.260191  s :     3.260191
      pz      :     1.060066  p :     2.975556
      px      :     0.876484
      py      :     1.039006
 19 H s       :     0.752835  s :     0.752835
 20 H s       :     0.752505  s :     0.752505


                     *******************************
                     * LOEWDIN POPULATION ANALYSIS *
                     *******************************

----------------------
LOEWDIN ATOMIC CHARGES
----------------------
   0 Fe:   -0.533663
   1 H :    0.164101
   2 C :   -0.110896
   3 H :    0.164084
   4 H :    0.164137
   5 C :   -0.110603
   6 C :   -0.110539
   7 C :   -0.110937
   8 C :   -0.110725
   9 H :    0.164077
  10 H :    0.164129
  11 H :    0.164133
  12 C :   -0.110723
  13 H :    0.164077
  14 H :    0.164136
  15 C :   -0.110935
  16 C :   -0.110539
  17 C :   -0.110606
  18 C :   -0.110894
  19 H :    0.164084
  20 H :    0.164101

-------------------------------
LOEWDIN REDUCED ORBITAL CHARGES
-------------------------------
  0 Fes       :     2.188649  s :     2.188649
      pz      :     2.252556  p :     6.783887
      px      :     2.244913
      py      :     2.286418
      dz2     :     1.488262  d :     7.561127
      dxz     :     1.695763
      dyz     :     1.487839
      dx2y2   :     1.819213
      dxy     :     1.070048
  1 H s       :     0.835899  s :     0.835899
  2 C s       :     2.912287  s :     2.912287
      pz      :     1.096685  p :     3.198609
      px      :     1.056089
      py      :     1.045834
  3 H s       :     0.835916  s :     0.835916
  4 H s       :     0.835863  s :     0.835863
  5 C s       :     2.912390  s :     2.912390
      pz      :     1.064759  p :     3.198212
      px      :     1.092041
      py      :     1.041412
  6 C s       :     2.912258  s :     2.912258
      pz      :     1.051712  p :     3.198281
      px      :     1.105813
      py      :     1.040756
  7 C s       :     2.912349  s :     2.912349
      pz      :     1.067672  p :     3.198588
      px      :     1.083711
      py      :     1.047205
  8 C s       :     2.912350  s :     2.912350
      pz      :     1.085572  p :     3.198375
      px      :     1.061298
      py      :     1.051506
  9 H s       :     0.835923  s :     0.835923
 10 H s       :     0.835871  s :     0.835871
 11 H s       :     0.835867  s :     0.835867
 12 C s       :     2.912345  s :     2.912345
      pz      :     1.085608  p :     3.198378
      px      :     1.061210
      py      :     1.051560
 13 H s       :     0.835923  s :     0.835923
 14 H s       :     0.835864  s :     0.835864
 15 C s       :     2.912338  s :     2.912338
      pz      :     1.067629  p :     3.198597
      px      :     1.083829
      py      :     1.047138
 16 C s       :     2.912253  s :     2.912253
      pz      :     1.051703  p :     3.198286
      px      :     1.105812
      py      :     1.040770
 17 C s       :     2.912393  s :     2.912393
      pz      :     1.064815  p :     3.198213
      px      :     1.091953
      py      :     1.041445
 18 C s       :     2.912299  s :     2.912299
      pz      :     1.096663  p :     3.198595
      px      :     1.056131
      py      :     1.045801
 19 H s       :     0.835916  s :     0.835916
 20 H s       :     0.835899  s :     0.835899


                      *****************************
                      * MAYER POPULATION ANALYSIS *
                      *****************************

  NA   - Mulliken gross atomic population
  ZA   - Total nuclear charge
  QA   - Mulliken gross atomic charge
  VA   - Mayer's total valence
  BVA  - Mayer's bonded valence
  FA   - Mayer's free valence

  ATOM       NA         ZA         QA         VA         BVA        FA
  0 Fe    16.1167    16.0000    -0.1167     4.3164     4.3164    -0.0000
  1 H      0.7525     1.0000     0.2475     0.8976     0.8976     0.0000
  2 C      6.2358     6.0000    -0.2358     3.8177     3.8177    -0.0000
  3 H      0.7528     1.0000     0.2472     0.8978     0.8978     0.0000
  4 H      0.7525     1.0000     0.2475     0.8975     0.8975     0.0000
  5 C      6.2353     6.0000    -0.2353     3.8179     3.8179    -0.0000
  6 C      6.2360     6.0000    -0.2360     3.8184     3.8184    -0.0000
  7 C      6.2359     6.0000    -0.2359     3.8178     3.8178    -0.0000
  8 C      6.2358     6.0000    -0.2358     3.8181     3.8181    -0.0000
  9 H      0.7528     1.0000     0.2472     0.8978     0.8978     0.0000
 10 H      0.7524     1.0000     0.2476     0.8974     0.8974     0.0000
 11 H      0.7523     1.0000     0.2477     0.8974     0.8974    -0.0000
 12 C      6.2358     6.0000    -0.2358     3.8181     3.8181    -0.0000
 13 H      0.7528     1.0000     0.2472     0.8978     0.8978    -0.0000
 14 H      0.7525     1.0000     0.2475     0.8975     0.8975     0.0000
 15 C      6.2359     6.0000    -0.2359     3.8178     3.8178    -0.0000
 16 C      6.2360     6.0000    -0.2360     3.8184     3.8184     0.0000
 17 C      6.2353     6.0000    -0.2353     3.8179     3.8179    -0.0000
 18 C      6.2357     6.0000    -0.2357     3.8176     3.8176    -0.0000
 19 H      0.7528     1.0000     0.2472     0.8978     0.8978     0.0000
 20 H      0.7525     1.0000     0.2475     0.8976     0.8976     0.0000

  Mayer bond orders larger than 0.100000
B(  0-Fe,  2-C ) :   0.4230 B(  0-Fe,  5-C ) :   0.4225 B(  0-Fe,  6-C ) :   0.4238 
B(  0-Fe,  7-C ) :   0.4230 B(  0-Fe,  8-C ) :   0.4229 B(  0-Fe, 12-C ) :   0.4230 
B(  0-Fe, 15-C ) :   0.4230 B(  0-Fe, 16-C ) :   0.4238 B(  0-Fe, 17-C ) :   0.4226 
B(  0-Fe, 18-C ) :   0.4230 B(  1-H ,  2-C ) :   0.8768 B(  2-C ,  5-C ) :   1.2435 
B(  2-C ,  6-C ) :   1.2423 B(  3-H ,  5-C ) :   0.8770 B(  4-H ,  6-C ) :   0.8766 
B(  5-C ,  7-C ) :   1.2425 B(  6-C ,  8-C ) :   1.2432 B(  7-C ,  8-C ) :   1.2432 
B(  7-C ,  9-H ) :   0.8771 B(  8-C , 10-H ) :   0.8767 B( 11-H , 12-C ) :   0.8767 
B( 12-C , 15-C ) :   1.2432 B( 12-C , 16-C ) :   1.2432 B( 13-H , 15-C ) :   0.8771 
B( 14-H , 16-C ) :   0.8766 B( 15-C , 17-C ) :   1.2425 B( 16-C , 18-C ) :   1.2423 
B( 17-C , 18-C ) :   1.2435 B( 17-C , 19-H ) :   0.8770 B( 18-C , 20-H ) :   0.8768 


-------
TIMINGS
-------

Total SCF time: 0 days 0 hours 0 min 39 sec 

Total time                  ....      39.605 sec
Sum of individual times     ....      37.113 sec  ( 93.7%)

Fock matrix formation       ....      28.300 sec  ( 71.5%)
  Split-RI-J                ....       1.105 sec  (  3.9% of F)
  Chain of spheres X        ....       3.999 sec  ( 14.1% of F)
  XC integration            ....      19.459 sec  ( 68.8% of F)
    Basis function eval.    ....       0.328 sec  (  1.7% of XC)
    Density eval.           ....       0.258 sec  (  1.3% of XC)
    XC-Functional eval.     ....       0.085 sec  (  0.4% of XC)
    XC-Potential eval.      ....       0.140 sec  (  0.7% of XC)
Diagonalization             ....       0.140 sec  (  0.4%)
Density matrix formation    ....       0.004 sec  (  0.0%)
Population analysis         ....       0.117 sec  (  0.3%)
Initial guess               ....       3.482 sec  (  8.8%)
Orbital Transformation      ....       0.000 sec  (  0.0%)
Orbital Orthonormalization  ....       0.000 sec  (  0.0%)
DIIS solution               ....       0.609 sec  (  1.5%)
Grid generation             ....       4.460 sec  ( 11.3%)

Maximum memory used throughout the entire SCF-calculation: 55.8 MB

-------------------------   --------------------
FINAL SINGLE POINT ENERGY      -510.126257435696
-------------------------   --------------------


                            ***************************************
                            *     ORCA property calculations      *
                            ***************************************

                                    ---------------------
                                    Active property flags
                                    ---------------------
   (+) Dipole Moment


------------------------------------------------------------------------------
                       ORCA ELECTRIC PROPERTIES CALCULATION
------------------------------------------------------------------------------

Dipole Moment Calculation                       ... on
Quadrupole Moment Calculation                   ... off
Polarizability Calculation                      ... off
GBWName                                         ... FeCP2_plus2_small_fc.orca.gbw
Electron density                                ... FeCP2_plus2_small_fc.orca.scfp
The origin for moment calculation is the CENTER OF MASS  = (-10.982297, -7.257351 -2.912721)

-------------
DIPOLE MOMENT
-------------
                                X             Y             Z
Electronic contribution:     -0.05063      -0.00002      -0.00047
Nuclear contribution   :      0.05157      -0.00000       0.00051
                        -----------------------------------------
Total Dipole Moment    :      0.00094      -0.00002       0.00005
                        -----------------------------------------
Magnitude (a.u.)       :      0.00094
Magnitude (Debye)      :      0.00240



--------------------
Rotational spectrum 
--------------------
 
Rotational constants in cm-1:     0.071778     0.033203     0.033202 
Rotational constants in MHz :  2151.844766   995.397077   995.381722 

 Dipole components along the rotational axes: 
x,y,z [a.u.] :     0.000000     0.000060    -0.000941 
x,y,z [Debye]:     0.000000     0.000154    -0.002391 

 


           ************************************************************
           *        Program running with 16 parallel MPI-processes    *
           *              working on a common directory               *
           ************************************************************

-------------------------------------------------------------------------------
                               ORCA SCF HESSIAN
-------------------------------------------------------------------------------

                   --------- SHARK INITIALIZATION DONE ---------

Hessian of the Kohn-Sham DFT energy:
Kohn-Sham wavefunction type                      ... RKS
Hartree-Fock exchange scaling                    ...    0.200
Number of operators                              ...    1
Number of atoms                                  ...   21
Basis set dimensions                             ...  132
Integral neglect threshold                       ... 1.0e-10
Integral primitive cutoff                        ... 1.0e-11

Setting up DFT Hessian calculations              ... 

HESS GRID
---------

General Integration Accuracy     IntAcc      ... 4.629
Radial Grid Type                 RadialGrid  ... OptM3 with GC (2021)
Angular Grid (max. ang.)         AngularGrid ... 5 (Lebedev-434)
Angular grid pruning method      GridPruning ... 4 (adaptive)
Weight generation scheme         WeightScheme... Becke
Basis function cutoff            BFCut       ... 1.0000e-10
Integration weight cutoff        WCut        ... 1.0000e-14
Angular grids for H and He will be reduced by one unit
Partially contracted basis set               ... off
Rotationally invariant grid construction     ... off

Total number of grid points                  ...   154768
Total number of batches                      ...     2430
Average number of points per batch           ...       63
Average number of grid points per atom       ...     7370

Building densities                               ... done   (      0.0 sec)
Calculating rho(r) on the grid                   ... done   (      0.3 sec)
Building xc-kernel on the grid                   ... done   (      0.5 sec)
                                                     done   (      3.1 sec)

Nuclear repulsion Hessian  (SHARK)               ... done   (      0.0 sec)

----------------------------------------------
Forming right-hand sides of CP-SCF equations     ...
----------------------------------------------
One electron integral derivatives  (SHARK)       ... done   (      0.0 sec)
Transforming the overlap derivative matrices     ... done   (      1.0 sec)
Making the Q(x) pseudodensities                  ... done   (      0.0 sec)
Adding the E*S(x)*S(y) terms to the Hessian      ... done   (      0.0 sec)
Calculating energy weighted overlap derivatives  ... done   (      1.8 sec)
F(y): ECP integral derivatives                   ... done   (      2.1 sec)
Two electron integral derivatives (SHARK-RI)     ... done   (      3.3 sec)
Exchange-correlation integral derivatives        ... done   (      5.8 sec)
tr(F(y)Q(x)) contribution to the Hessian         ... done   (      0.0 sec)
Response fock operator R(S(x)) (SHARK-RIJCOSX)   ... done   (      3.0 sec)
XC Response fock operator R(S(x))                ... done   (      2.8 sec)
tr(F(y)S(x)) contribution to the Hessian         ... done   (      0.0 sec)
Transforming and finalizing RHSs                 ... done   (      0.9 sec)

----------------------------------------------
Solving the CP-SCF equations (RIJCOSX)           ...
----------------------------------------------
     CP-SCF ITERATION   0:   2.0534e-01 (   1.5 sec   0/ 63 done)
     CP-SCF ITERATION   1:   9.0013e-02 (   1.5 sec   0/ 63 done)
     CP-SCF ITERATION   2:   3.9349e-02 (   1.5 sec   0/ 63 done)
     CP-SCF ITERATION   3:   2.5811e-02 (   1.5 sec   0/ 63 done)
     CP-SCF ITERATION   4:   1.5181e-02 (   1.5 sec  11/ 63 done)
     CP-SCF ITERATION   5:   6.5862e-03 (   1.3 sec  20/ 63 done)
     CP-SCF ITERATION   6:   2.9463e-03 (   1.1 sec  35/ 63 done)
     CP-SCF ITERATION   7:   1.2672e-03 (   0.8 sec  49/ 63 done)
     CP-SCF ITERATION   8:   8.5039e-04 (   0.6 sec  63/ 63 done)
                    *** THE CP-SCF HAS CONVERGED ***

                                                 ... done   (     13.4 sec)
Forming perturbed density Hessian contributions  ... done   (      0.0 sec)
2nd integral derivative contribs (SHARK-RI)      ... done   (      9.5 sec)
Exchange-correlation Hessian                     ... done   (      5.2 sec)
ECP integral 2nd derivatives                     ... done   (      5.5 sec)
Dipole derivatives                               ... (center of mass: -10.982297, -7.257351 -2.912721)done   (      0.1 sec)

Total SCF Hessian time: 0 days 0 hours 0 min 59 sec 

Writing the Hessian file to the disk             ... done


Maximum memory used throughout the entire SCFHESS-calculation: 113.5 MB

-----------------------
VIBRATIONAL FREQUENCIES
-----------------------

Scaling factor for frequencies =  1.000000000  (already applied!)

   0:         0.00 cm**-1
   1:         0.00 cm**-1
   2:         0.00 cm**-1
   3:         0.00 cm**-1
   4:         0.00 cm**-1
   5:         0.00 cm**-1
   6:        34.14 cm**-1
   7:       154.35 cm**-1
   8:       154.39 cm**-1
   9:       265.59 cm**-1
  10:       324.83 cm**-1
  11:       324.97 cm**-1
  12:       430.90 cm**-1
  13:       430.94 cm**-1
  14:       450.14 cm**-1
  15:       577.13 cm**-1
  16:       577.41 cm**-1
  17:       585.12 cm**-1
  18:       585.41 cm**-1
  19:       779.53 cm**-1
  20:       779.63 cm**-1
  21:       799.04 cm**-1
  22:       814.30 cm**-1
  23:       814.72 cm**-1
  24:       817.65 cm**-1
  25:       843.11 cm**-1
  26:       843.15 cm**-1
  27:       851.81 cm**-1
  28:       851.88 cm**-1
  29:       862.79 cm**-1
  30:       862.86 cm**-1
  31:       870.03 cm**-1
  32:       870.07 cm**-1
  33:      1018.61 cm**-1
  34:      1018.96 cm**-1
  35:      1024.62 cm**-1
  36:      1025.20 cm**-1
  37:      1081.98 cm**-1
  38:      1082.00 cm**-1
  39:      1090.85 cm**-1
  40:      1090.90 cm**-1
  41:      1119.84 cm**-1
  42:      1121.96 cm**-1
  43:      1292.87 cm**-1
  44:      1293.40 cm**-1
  45:      1372.93 cm**-1
  46:      1373.26 cm**-1
  47:      1392.62 cm**-1
  48:      1392.65 cm**-1
  49:      1440.39 cm**-1
  50:      1440.85 cm**-1
  51:      1440.97 cm**-1
  52:      1441.22 cm**-1
  53:      3261.02 cm**-1
  54:      3261.16 cm**-1
  55:      3261.89 cm**-1
  56:      3262.04 cm**-1
  57:      3277.99 cm**-1
  58:      3278.56 cm**-1
  59:      3279.30 cm**-1
  60:      3279.53 cm**-1
  61:      3299.22 cm**-1
  62:      3299.33 cm**-1


------------
NORMAL MODES
------------

These modes are the Cartesian displacements weighted by the diagonal matrix
M(i,i)=1/sqrt(m[i]) where m[i] is the mass of the displaced atom
Thus, these vectors are normalized but *not* orthogonal

                  0          1          2          3          4          5    
      0       0.000000   0.000000   0.000000   0.000000   0.000000   0.000000
      1       0.000000   0.000000   0.000000   0.000000   0.000000   0.000000
      2       0.000000   0.000000   0.000000   0.000000   0.000000   0.000000
      3       0.000000   0.000000   0.000000   0.000000   0.000000   0.000000
      4       0.000000   0.000000   0.000000   0.000000   0.000000   0.000000
      5       0.000000   0.000000   0.000000   0.000000   0.000000   0.000000
      6       0.000000   0.000000   0.000000   0.000000   0.000000   0.000000
      7       0.000000   0.000000   0.000000   0.000000   0.000000   0.000000
      8       0.000000   0.000000   0.000000   0.000000   0.000000   0.000000
      9       0.000000   0.000000   0.000000   0.000000   0.000000   0.000000
     10       0.000000   0.000000   0.000000   0.000000   0.000000   0.000000
     11       0.000000   0.000000   0.000000   0.000000   0.000000   0.000000
     12       0.000000   0.000000   0.000000   0.000000   0.000000   0.000000
     13       0.000000   0.000000   0.000000   0.000000   0.000000   0.000000
     14       0.000000   0.000000   0.000000   0.000000   0.000000   0.000000
     15       0.000000   0.000000   0.000000   0.000000   0.000000   0.000000
     16       0.000000   0.000000   0.000000   0.000000   0.000000   0.000000
     17       0.000000   0.000000   0.000000   0.000000   0.000000   0.000000
     18       0.000000   0.000000   0.000000   0.000000   0.000000   0.000000
     19       0.000000   0.000000   0.000000   0.000000   0.000000   0.000000
     20       0.000000   0.000000   0.000000   0.000000   0.000000   0.000000
     21       0.000000   0.000000   0.000000   0.000000   0.000000   0.000000
     22       0.000000   0.000000   0.000000   0.000000   0.000000   0.000000
     23       0.000000   0.000000   0.000000   0.000000   0.000000   0.000000
     24       0.000000   0.000000   0.000000   0.000000   0.000000   0.000000
     25       0.000000   0.000000   0.000000   0.000000   0.000000   0.000000
     26       0.000000   0.000000   0.000000   0.000000   0.000000   0.000000
     27       0.000000   0.000000   0.000000   0.000000   0.000000   0.000000
     28       0.000000   0.000000   0.000000   0.000000   0.000000   0.000000
     29       0.000000   0.000000   0.000000   0.000000   0.000000   0.000000
     30       0.000000   0.000000   0.000000   0.000000   0.000000   0.000000
     31       0.000000   0.000000   0.000000   0.000000   0.000000   0.000000
     32       0.000000   0.000000   0.000000   0.000000   0.000000   0.000000
     33       0.000000   0.000000   0.000000   0.000000   0.000000   0.000000
     34       0.000000   0.000000   0.000000   0.000000   0.000000   0.000000
     35       0.000000   0.000000   0.000000   0.000000   0.000000   0.000000
     36       0.000000   0.000000   0.000000   0.000000   0.000000   0.000000
     37       0.000000   0.000000   0.000000   0.000000   0.000000   0.000000
     38       0.000000   0.000000   0.000000   0.000000   0.000000   0.000000
     39       0.000000   0.000000   0.000000   0.000000   0.000000   0.000000
     40       0.000000   0.000000   0.000000   0.000000   0.000000   0.000000
     41       0.000000   0.000000   0.000000   0.000000   0.000000   0.000000
     42       0.000000   0.000000   0.000000   0.000000   0.000000   0.000000
     43       0.000000   0.000000   0.000000   0.000000   0.000000   0.000000
     44       0.000000   0.000000   0.000000   0.000000   0.000000   0.000000
     45       0.000000   0.000000   0.000000   0.000000   0.000000   0.000000
     46       0.000000   0.000000   0.000000   0.000000   0.000000   0.000000
     47       0.000000   0.000000   0.000000   0.000000   0.000000   0.000000
     48       0.000000   0.000000   0.000000   0.000000   0.000000   0.000000
     49       0.000000   0.000000   0.000000   0.000000   0.000000   0.000000
     50       0.000000   0.000000   0.000000   0.000000   0.000000   0.000000
     51       0.000000   0.000000   0.000000   0.000000   0.000000   0.000000
     52       0.000000   0.000000   0.000000   0.000000   0.000000   0.000000
     53       0.000000   0.000000   0.000000   0.000000   0.000000   0.000000
     54       0.000000   0.000000   0.000000   0.000000   0.000000   0.000000
     55       0.000000   0.000000   0.000000   0.000000   0.000000   0.000000
     56       0.000000   0.000000   0.000000   0.000000   0.000000   0.000000
     57       0.000000   0.000000   0.000000   0.000000   0.000000   0.000000
     58       0.000000   0.000000   0.000000   0.000000   0.000000   0.000000
     59       0.000000   0.000000   0.000000   0.000000   0.000000   0.000000
     60       0.000000   0.000000   0.000000   0.000000   0.000000   0.000000
     61       0.000000   0.000000   0.000000   0.000000   0.000000   0.000000
     62       0.000000   0.000000   0.000000   0.000000   0.000000   0.000000
                  6          7          8          9         10         11    
      0      -0.000188   0.017509   0.123528   0.000609  -0.000089  -0.008531
      1       0.000002   0.049278  -0.006880  -0.000020   0.002350  -0.000067
      2      -0.000004  -0.113322   0.016112  -0.000008  -0.007506   0.000160
      3      -0.271851  -0.008088  -0.051236   0.002535  -0.111445   0.015706
      4       0.026848   0.330048   0.034159   0.220509  -0.082911  -0.339496
      5      -0.058049   0.200541   0.006928   0.104480  -0.038870  -0.056170
      6      -0.144469  -0.008068  -0.052191   0.000160  -0.093669   0.009909
      7       0.015528   0.156241   0.018989   0.180982  -0.054362  -0.218839
      8      -0.030360   0.126580   0.000240   0.087801  -0.022916  -0.008488
      9      -0.144525  -0.006919  -0.053062   0.008228  -0.091124  -0.009173
     10      -0.092834   0.117852  -0.321336   0.222778   0.257405  -0.215807
     11       0.219847   0.107764  -0.148327   0.096586   0.135476   0.018827
     12      -0.023285  -0.007699  -0.052208  -0.007186  -0.081446   0.007537
     13       0.111625   0.058326   0.346121   0.221912  -0.318897  -0.059866
     14      -0.254896   0.079949   0.141960   0.102334  -0.132236   0.098625
     15      -0.076777  -0.006880  -0.054015   0.007922  -0.083115  -0.002727
     16      -0.048300   0.049641  -0.161249   0.183647   0.156215  -0.145680
     17       0.117377   0.079011  -0.078959   0.082009   0.082042   0.034369
     18      -0.012414  -0.007936  -0.053735  -0.008384  -0.078307   0.005983
     19       0.060923   0.018680   0.176964   0.183367  -0.196248  -0.043811
     20      -0.135112   0.064433   0.068588   0.083209  -0.080012   0.084709
     21       0.097146  -0.008692  -0.053102   0.004113  -0.084063   0.013774
     22      -0.042373  -0.155638  -0.115635   0.187359   0.155688   0.084190
     23       0.103864  -0.009307  -0.057069   0.073343   0.064150   0.133086
     24       0.136912  -0.006708  -0.052164  -0.005994  -0.093138   0.000357
     25       0.024989  -0.174937   0.094593   0.187334  -0.070128   0.151630
     26      -0.052164  -0.017351   0.031737   0.074127  -0.018978   0.152724
     27       0.182508  -0.008663  -0.052180   0.002072  -0.092538   0.022994
     28      -0.081838  -0.286646  -0.230063   0.226550   0.252617   0.158019
     29       0.194569  -0.067114  -0.106497   0.089122   0.099209   0.179524
     30       0.257490  -0.006628  -0.050571  -0.007566  -0.110629  -0.003275
     31       0.044636  -0.323564   0.184151   0.226069  -0.118505   0.263828
     32      -0.098793  -0.083289   0.070708   0.092755  -0.033193   0.206580
     33       0.257710  -0.006970  -0.050285  -0.007150   0.110579  -0.007397
     34      -0.043968  -0.362182  -0.086287  -0.225953  -0.129142  -0.258715
     35       0.098532  -0.099734  -0.044478  -0.092691  -0.041861  -0.205020
     36       0.137030  -0.007691  -0.051922  -0.005648   0.093152  -0.003275
     37      -0.024648  -0.194437  -0.042004  -0.187319  -0.076248  -0.148593
     38       0.052024  -0.025526  -0.025556  -0.074106  -0.025443  -0.151800
     39       0.182091  -0.005786  -0.053231   0.002507   0.092786   0.019390
     40       0.082326  -0.210849   0.300953  -0.226608   0.246152  -0.168352
     41      -0.194749  -0.034610   0.121066  -0.089152   0.091604  -0.183519
     42      -0.022752  -0.007082  -0.051608  -0.006795   0.082309   0.003874
     43      -0.111856  -0.040883  -0.348755  -0.221677  -0.316266   0.073179
     44       0.254892   0.037022  -0.158567  -0.102212  -0.136398  -0.093034
     45       0.096930  -0.006213  -0.053791   0.004471   0.084159   0.010372
     46       0.042618  -0.117092   0.154378  -0.187427   0.152184  -0.090554
     47      -0.103966   0.007045   0.057415  -0.073388   0.058445  -0.135646
     48      -0.012121  -0.007297  -0.053495  -0.008059   0.078824   0.002515
     49      -0.060928  -0.031576  -0.175090  -0.183169  -0.194152   0.051914
     50       0.135139   0.042677  -0.083755  -0.083109  -0.083585  -0.081325
     51      -0.077021  -0.008650  -0.054125   0.008263   0.082512  -0.006581
     52       0.048094   0.092750   0.140678  -0.183737   0.162204   0.139085
     53      -0.117289   0.097966   0.053716  -0.082061   0.080402  -0.037733
     54      -0.144396  -0.007107  -0.052285   0.000473   0.094009   0.005450
     55      -0.015904   0.144653  -0.062077  -0.180969  -0.045103   0.220940
     56       0.030506   0.121454  -0.035605  -0.087798  -0.022694   0.009436
     57      -0.145008  -0.008579  -0.053526   0.008638   0.090014  -0.013510
     58       0.092484   0.203003   0.275361  -0.222847   0.266415   0.204871
     59      -0.219661   0.144974   0.112302  -0.096633   0.134531  -0.024449
     60      -0.271712  -0.007165  -0.051234   0.002928   0.112056   0.010234
     61      -0.027522   0.307276  -0.125193  -0.220407  -0.068488   0.342675
     62       0.058333   0.190589  -0.062692  -0.104446  -0.036646   0.057730
                 12         13         14         15         16         17    
      0       0.038470   0.306248   0.000415  -0.000012  -0.000014   0.000004
      1       0.121006  -0.014777  -0.290406   0.000010  -0.000114  -0.000094
      2      -0.281417   0.035516  -0.125173   0.000000   0.000115   0.000111
      3       0.001549  -0.201454  -0.003707   0.019828  -0.001403   0.023546
      4      -0.217725  -0.037486   0.242269   0.039361   0.344040   0.028294
      5       0.030885  -0.047441   0.126588   0.020581   0.142001   0.019226
      6      -0.003291  -0.151358  -0.004860   0.016232  -0.002623   0.011411
      7      -0.251935  -0.029193   0.105868   0.023214   0.225535   0.023409
      8       0.009355  -0.031926   0.070029   0.013084   0.094174   0.014479
      9      -0.051368  -0.131996   0.018298  -0.003595   0.010581  -0.010470
     10      -0.169702   0.138012   0.244184  -0.238275  -0.250498  -0.228147
     11       0.127108   0.087106   0.116800  -0.087914  -0.120090  -0.082737
     12      -0.000448  -0.114092  -0.019782   0.001219  -0.006916  -0.001017
     13      -0.089764  -0.168731   0.249687   0.174929  -0.293514   0.181020
     14       0.181401  -0.101472   0.109914   0.055710  -0.137015   0.055443
     15      -0.029100  -0.116818   0.020011  -0.003979   0.007479  -0.008422
     16      -0.154739   0.183566   0.109199  -0.154982  -0.164442  -0.158153
     17       0.088746   0.089053   0.059969  -0.055669  -0.082280  -0.061254
     18      -0.003960  -0.108436  -0.022591  -0.000365  -0.003553  -0.002022
     19      -0.091958  -0.203454   0.114273   0.118071  -0.191250   0.119240
     20       0.125428  -0.106181   0.051191   0.034260  -0.090094   0.041653
     21       0.012490  -0.129187   0.017760  -0.002829   0.011102   0.000928
     22       0.097798   0.163624   0.119063   0.219559   0.043842   0.229018
     23       0.184637   0.035556   0.035001   0.095812   0.032644   0.092406
     24      -0.028124  -0.143647  -0.008393  -0.009048  -0.012589  -0.001580
     25       0.143545  -0.097991   0.122163  -0.205484   0.086603  -0.213347
     26       0.188909  -0.033734   0.029612  -0.087625   0.045349  -0.087503
     27       0.032554  -0.156495   0.015976  -0.005944   0.012747  -0.002208
     28       0.050388   0.161652   0.252454   0.334731   0.064795   0.330820
     29       0.195477   0.006203   0.094324   0.147127   0.044944   0.138411
     30      -0.049528  -0.186009  -0.007241  -0.011481  -0.015327  -0.009411
     31       0.116197  -0.073703   0.256609  -0.310875   0.135832  -0.312040
     32       0.192114  -0.006409   0.090577  -0.136123   0.069706  -0.130968
     33       0.001431  -0.192778   0.006548  -0.012724   0.014506   0.010624
     34       0.130878   0.041863   0.256697   0.304917   0.147820  -0.308838
     35       0.187628  -0.041504   0.090548   0.133144   0.074931  -0.129409
     36      -0.008814  -0.146397   0.008015  -0.009970   0.011997   0.002343
     37       0.163415   0.058810   0.122334   0.201615   0.094359  -0.210924
     38       0.191353  -0.014223   0.029650   0.085671   0.048630  -0.086410
     39      -0.070376  -0.143148  -0.016655  -0.004686  -0.012975   0.001061
     40       0.008260  -0.170077   0.252202  -0.336632   0.051373   0.332576
     41       0.187808  -0.054771   0.094293  -0.148617   0.038936   0.139720
     42      -0.027691  -0.111118   0.019166   0.001302   0.007616   0.000624
     43      -0.045020   0.185212   0.250039  -0.163211  -0.299351   0.173609
     44       0.200985   0.053144   0.109999  -0.050243  -0.138682   0.051865
     45      -0.044275  -0.121684  -0.018129  -0.001898  -0.011219  -0.001637
     46       0.053773  -0.183458   0.118918  -0.220906   0.034901   0.230245
     47       0.169974  -0.080400   0.034999  -0.096941   0.028703   0.093188
     48      -0.022953  -0.106593   0.022288  -0.000253   0.003963   0.001684
     49      -0.038374   0.219698   0.114505  -0.110229  -0.195188   0.114201
     50       0.147964   0.071700   0.051259  -0.030598  -0.091104   0.039227
     51      -0.000362  -0.120207  -0.020312  -0.004019  -0.007303   0.008769
     52      -0.195641  -0.139816   0.109079   0.161224  -0.157601  -0.162611
     53       0.063742  -0.108378   0.059930   0.058845  -0.079707  -0.063406
     54      -0.033912  -0.147711   0.004554   0.016177   0.002801  -0.011487
     55      -0.236787   0.090688   0.105959  -0.032116   0.223614   0.029403
     56       0.017049   0.028737   0.070073  -0.016840   0.093199   0.017223
     57       0.017471  -0.140596  -0.018880  -0.003706  -0.010202   0.010802
     58      -0.198696  -0.092374   0.244000   0.247857  -0.239876  -0.234762
     59       0.101386  -0.116203   0.116698   0.092570  -0.115964  -0.086040
     60      -0.051138  -0.195026   0.003044   0.019865   0.001487  -0.023598
     61      -0.201573   0.089940   0.242232  -0.052932   0.341236   0.036984
     62       0.041804   0.038395   0.126603  -0.026229   0.140629   0.023050
                 18         19         20         21         22         23    
      0       0.000060   0.000041   0.000550  -0.000044   0.000472  -0.015845
      1      -0.000001  -0.000171  -0.000015  -0.017557  -0.006199  -0.000136
      2       0.000006   0.000497   0.000028  -0.007533   0.014601   0.000461
      3      -0.002185  -0.005605   0.003026  -0.000377  -0.001650   0.020646
      4       0.335436   0.066194   0.401442  -0.287451   0.397065   0.096410
      5       0.145403   0.025433   0.166313  -0.124305   0.164831   0.045043
      6      -0.000155  -0.000811   0.001290   0.000445  -0.000579   0.007425
      7       0.227982  -0.008317  -0.054039   0.032802  -0.051143  -0.013567
      8       0.103550  -0.005316  -0.029783   0.012608  -0.028005  -0.005761
      9       0.008056   0.003491  -0.005611  -0.000394   0.006878   0.008718
     10      -0.244948  -0.361508   0.185241  -0.287812   0.227764  -0.345750
     11      -0.121594  -0.150251   0.083188  -0.125045   0.080079  -0.156901
     12      -0.000659   0.008376   0.001374  -0.000849  -0.001552   0.007402
     13      -0.286241   0.399260   0.057222  -0.285447   0.031926   0.395772
     14      -0.137580   0.171732   0.031073  -0.124525  -0.008425   0.174499
     15       0.000755   0.004426  -0.003120  -0.001429   0.000810   0.005322
     16      -0.166657   0.049542  -0.025626   0.032672  -0.027135   0.047364
     17      -0.079950   0.024839  -0.011968   0.013072  -0.019223   0.019236
     18       0.003212   0.006015   0.000628   0.001657  -0.000629   0.005336
     19      -0.199178  -0.055830  -0.009048   0.032017  -0.000241  -0.053900
[...]
     12       0.436542  -0.111735  -0.442898  -0.436250   0.130011   0.420856
     13       0.012677  -0.002424  -0.013031  -0.012381   0.002232   0.012439
     14      -0.034707   0.006831   0.034415   0.034641  -0.006777  -0.034073
     15       0.017218   0.028939  -0.006223   0.028881   0.012649  -0.032486
     16      -0.004909  -0.007105   0.002254  -0.008088  -0.001778   0.008686
     17       0.010683   0.015192  -0.004823   0.017685   0.003754  -0.018929
     18      -0.037920   0.009800   0.038612   0.039705  -0.012062  -0.038229
     19      -0.001740  -0.000056   0.001603   0.001717   0.000743  -0.001941
     20       0.003148   0.000431  -0.002626  -0.003175  -0.001967   0.003681
     21       0.001010  -0.029875  -0.011005   0.022027  -0.025420  -0.017245
     22       0.001024  -0.009612  -0.004214   0.008334  -0.007357  -0.006952
     23      -0.002442   0.023634   0.010199  -0.020099   0.017891   0.016776
     24       0.010453  -0.010491  -0.013324   0.003431   0.014775  -0.006859
     25      -0.008546   0.010528   0.011647  -0.006135  -0.011904   0.008879
     26       0.020323  -0.025191  -0.027783   0.014523   0.028170  -0.021035
     27      -0.020656   0.341601   0.133870  -0.255248   0.266519   0.205406
     28      -0.008231   0.117220   0.047122  -0.089445   0.090712   0.072459
     29       0.018737  -0.269912  -0.108196   0.204767  -0.207771  -0.166155
     30      -0.110292   0.128842   0.147363  -0.064206  -0.146251   0.097887
     31       0.104072  -0.124646  -0.139811   0.065270   0.138020  -0.097188
     32      -0.236935   0.284683   0.319123  -0.148559  -0.313859   0.221247
     33       0.110713  -0.125405   0.148754   0.061943  -0.145341   0.091484
     34       0.105317  -0.122266   0.142219   0.063606  -0.138257   0.091771
     35      -0.239232   0.278656  -0.323901  -0.144482   0.313701  -0.208476
     36      -0.010467   0.010191  -0.013441  -0.003196   0.014648  -0.006248
     37      -0.008656   0.010326  -0.011849  -0.005987   0.011936  -0.008401
     38       0.020530  -0.024660   0.028200   0.014157  -0.028173   0.019873
     39       0.026990  -0.338125   0.138725   0.260332   0.260944   0.212796
     40      -0.010307   0.114911  -0.048341  -0.090335  -0.087934  -0.074252
     41       0.023636  -0.266343   0.111712   0.208135   0.202739   0.171350
     42      -0.433314   0.106363  -0.447091   0.439079   0.123304   0.420742
     43       0.011444  -0.002020   0.011902  -0.011342  -0.001708  -0.011313
     44      -0.033991   0.006330  -0.034283   0.034383   0.006151   0.033522
     45      -0.001573   0.029581  -0.011428  -0.022506  -0.024917  -0.017972
     46       0.001193  -0.009414   0.004316   0.008407   0.007107   0.007087
     47      -0.002862   0.023314  -0.010511  -0.020398  -0.017421  -0.017203
     48       0.037644  -0.009329   0.038981  -0.039967  -0.011445  -0.038227
     49      -0.001618  -0.000094  -0.001510   0.001606  -0.000791   0.001799
     50       0.003066   0.000459   0.002603  -0.003115   0.002006  -0.003543
     51      -0.016420  -0.028710  -0.005927  -0.028765   0.012881  -0.031706
     52      -0.004755  -0.007140  -0.002204  -0.008168   0.001895  -0.008624
     53       0.010278   0.015137   0.004690   0.017729  -0.003954   0.018654
     54      -0.008653  -0.002116  -0.007625   0.000799  -0.009458   0.002592
     55       0.014003   0.005768   0.011460   0.004117   0.016013   0.000929
     56      -0.031403  -0.012886  -0.025513  -0.009256  -0.036027  -0.002066
     57       0.194441   0.326098   0.074955   0.324407  -0.126178   0.353313
     58       0.047984   0.078879   0.019358   0.079435  -0.028798   0.086241
     59      -0.110548  -0.180924  -0.044096  -0.183740   0.066792  -0.199068
     60       0.094883   0.035674   0.078088   0.020878   0.102780   0.000376
     61      -0.156475  -0.062949  -0.127742  -0.041123  -0.170600  -0.007320
     62       0.364688   0.146254   0.296867   0.096038   0.398432   0.016875
                 60         61         62    
      0      -0.000007  -0.000001   0.000002
      1      -0.000178   0.000589   0.000000
      2       0.000416   0.000256   0.000000
      3      -0.099626   0.072460   0.072193
      4      -0.165877   0.120371   0.120388
      5       0.386352  -0.284018  -0.282811
      6       0.009616  -0.007018  -0.006967
      7       0.015528  -0.011982  -0.011893
      8      -0.034842   0.027412   0.027245
      9       0.189599  -0.266896  -0.267181
     10      -0.043828   0.062590   0.063073
     11       0.102061  -0.149311  -0.149156
     12      -0.045987   0.313257   0.315512
     13       0.000257   0.007637   0.008167
     14       0.000003  -0.025137  -0.025156
     15      -0.018465   0.025927   0.025863
     16       0.003446  -0.006368  -0.006346
     17      -0.007369   0.014347   0.014321
     18       0.004404  -0.030417  -0.030520
     19      -0.001034  -0.001045  -0.001047
     20       0.002485   0.002315   0.002329
     21       0.021259   0.022895   0.022875
     22       0.005810   0.007707   0.007707
     23      -0.014183  -0.018139  -0.018124
     24      -0.015602  -0.011915  -0.011893
     25       0.013223   0.011244   0.011236
     26      -0.031361  -0.026115  -0.026078
     27      -0.218808  -0.235592  -0.236144
     28      -0.073882  -0.082439  -0.082232
     29       0.169351   0.185558   0.186170
     30       0.160632   0.123028   0.123256
     31      -0.152310  -0.119180  -0.118944
     32       0.346822   0.267944   0.268498
     33      -0.164492  -0.122771   0.122589
     34      -0.157292  -0.119824   0.119189
     35       0.357374   0.268821  -0.268476
     36       0.015893   0.011888  -0.011827
     37       0.013674   0.011305  -0.011259
     38      -0.032349  -0.026198   0.026074
     39       0.213535   0.236165  -0.235964
     40      -0.071305  -0.081866   0.081398
     41       0.164532   0.185447  -0.185468
     42       0.032448  -0.313871   0.315104
     43       0.000758   0.006829  -0.007304
     44      -0.001155  -0.024878   0.024814
     45      -0.020836  -0.022952   0.022859
     46       0.005554   0.007652  -0.007627
     47      -0.013678  -0.018129   0.018056
     48      -0.003170   0.030477  -0.030481
     49      -0.001115  -0.000968   0.000965
     50       0.002632   0.002291  -0.002296
     51       0.019647  -0.025915   0.025771
     52       0.003808  -0.006441   0.006400
     53      -0.008069   0.014389  -0.014319
     54      -0.009865   0.007088  -0.007015
     55       0.015615  -0.011986   0.011858
     56      -0.035086   0.027456  -0.027201
     57      -0.202595   0.266771  -0.266233
     58      -0.047538   0.063340  -0.063627
     59       0.109699  -0.149736   0.149120
     60       0.101359  -0.073195   0.072690
     61      -0.166910   0.120417  -0.120045
     62       0.389272  -0.284490   0.282365


-----------
IR SPECTRUM
-----------

 Mode   freq       eps      Int      T**2         TX        TY        TZ
       cm**-1   L/(mol*cm) km/mol    a.u.
----------------------------------------------------------------------------
  6:     34.14   0.000000    0.00  0.000000  ( 0.000647 -0.000129  0.000007)
  7:    154.35   0.000071    0.36  0.000143  (-0.001670 -0.004243  0.011037)
  8:    154.39   0.000071    0.36  0.000143  (-0.011835  0.000441 -0.001558)
  9:    265.59   0.000000    0.00  0.000000  (-0.000255 -0.000063  0.000005)
 10:    324.83   0.000011    0.06  0.000011  (-0.000101 -0.001116  0.003074)
 11:    324.97   0.000013    0.06  0.000012  ( 0.003469  0.000050 -0.000069)
 12:    430.90   0.004819   24.35  0.003490  (-0.007423 -0.023106  0.053861)
 13:    430.94   0.004876   24.64  0.003531  (-0.058965  0.002859 -0.006798)
 14:    450.14   0.001579    7.98  0.001094  ( 0.000018  0.030317  0.013242)
 15:    577.13   0.000000    0.00  0.000000  ( 0.000151 -0.000042  0.000002)
 16:    577.41   0.000000    0.00  0.000000  (-0.000098  0.000055 -0.000015)
 17:    585.12   0.000000    0.00  0.000000  ( 0.000062 -0.000185 -0.000125)
 18:    585.41   0.000000    0.00  0.000000  (-0.000100  0.000068 -0.000006)
 19:    779.53   0.000002    0.01  0.000001  ( 0.000186  0.000172 -0.000846)
 20:    779.63   0.000002    0.01  0.000001  (-0.000823 -0.000028 -0.000065)
 21:    799.04   0.027539  139.17  0.010756  ( 0.000026 -0.095015 -0.041566)
 22:    814.30   0.001343    6.79  0.000515  (-0.000659  0.009904 -0.020397)
 23:    814.72   0.001374    6.94  0.000526  ( 0.022932  0.000534 -0.000425)
 24:    817.65   0.000004    0.02  0.000002  (-0.001252  0.000188  0.000068)
 25:    843.11   0.000000    0.00  0.000000  ( 0.000168  0.000009  0.000017)
 26:    843.15   0.000000    0.00  0.000000  ( 0.000168 -0.000066 -0.000159)
 27:    851.81   0.000000    0.00  0.000000  ( 0.000013 -0.000001  0.000183)
 28:    851.88   0.000000    0.00  0.000000  (-0.000063  0.000067  0.000408)
 29:    862.79   0.000000    0.00  0.000000  ( 0.000299  0.000042 -0.000257)
 30:    862.86   0.000000    0.00  0.000000  (-0.000042  0.000005 -0.000089)
 31:    870.03   0.000000    0.00  0.000000  (-0.000001 -0.000204 -0.000081)
 32:    870.07   0.000000    0.00  0.000000  ( 0.000250 -0.000058  0.000027)
 33:   1018.61   0.000017    0.09  0.000005  ( 0.000058  0.000780 -0.002135)
 34:   1018.96   0.000004    0.02  0.000001  (-0.001112 -0.000068  0.000029)
 35:   1024.62   0.006470   32.70  0.001970  ( 0.044389 -0.000059  0.000291)
 36:   1025.20   0.006310   31.89  0.001921  ( 0.000376  0.017370 -0.040237)
 37:   1081.98   0.000002    0.01  0.000000  (-0.000019 -0.000658  0.000010)
 38:   1082.00   0.000000    0.00  0.000000  (-0.000166  0.000186  0.000002)
 39:   1090.85   0.000000    0.00  0.000000  ( 0.000287 -0.000009 -0.000012)
 40:   1090.90   0.000002    0.01  0.000001  (-0.000112 -0.000225 -0.000723)
 41:   1119.84   0.000000    0.00  0.000000  (-0.000111 -0.000012  0.000004)
 42:   1121.96   0.003490   17.64  0.000971  ( 0.000039 -0.028566 -0.012443)
 43:   1292.87   0.000000    0.00  0.000000  ( 0.000056 -0.000225 -0.000063)
 44:   1293.40   0.000000    0.00  0.000000  (-0.000208  0.000034 -0.000001)
 45:   1372.93   0.000000    0.00  0.000000  ( 0.000013 -0.000106 -0.000028)
 46:   1373.26   0.000000    0.00  0.000000  (-0.000193  0.000012  0.000001)
 47:   1392.62   0.000000    0.00  0.000000  (-0.000143  0.000070  0.000057)
 48:   1392.65   0.000000    0.00  0.000000  ( 0.000190  0.000074  0.000048)
 49:   1440.39   0.000182    0.92  0.000039  ( 0.000176  0.002415 -0.005793)
 50:   1440.85   0.000294    1.49  0.000064  (-0.007616 -0.000937  0.002204)
 51:   1440.97   0.000633    3.20  0.000137  (-0.001939  0.004394 -0.010674)
 52:   1441.22   0.000633    3.20  0.000137  (-0.011708 -0.000118  0.000297)
 53:   3261.02   0.000000    0.00  0.000000  ( 0.000003 -0.000007  0.000014)
 54:   3261.16   0.000000    0.00  0.000000  ( 0.000007 -0.000205  0.000020)
 55:   3261.89   0.000002    0.01  0.000000  ( 0.000003 -0.000081  0.000431)
 56:   3262.04   0.000001    0.00  0.000000  ( 0.000289  0.000002 -0.000009)
 57:   3277.99   0.000000    0.00  0.000000  (-0.000066  0.000057 -0.000081)
 58:   3278.56   0.000187    0.94  0.000018  (-0.004213 -0.000042  0.000082)
 59:   3279.30   0.004473   22.60  0.000426  (-0.020628  0.000125 -0.000330)
 60:   3279.53   0.004773   24.12  0.000454  ( 0.000323  0.008907 -0.019358)
 61:   3299.22   0.000053    0.27  0.000005  ( 0.000010 -0.001955 -0.001078)
 62:   3299.33   0.000000    0.00  0.000000  (-0.000140 -0.000003  0.000001)

* The epsilon (eps) is given for a Dirac delta lineshape.
** The dipole moment derivative (T) already includes vibrational overlap.

The first frequency considered to be a vibration is 6
The total number of vibrations considered is 57


--------------------------
THERMOCHEMISTRY AT 298.15K
--------------------------

Temperature         ... 298.15 K
Pressure            ... 1.00 atm
Total Mass          ... 186.04 AMU

Throughout the following assumptions are being made:
  (1) The electronic state is orbitally nondegenerate
  (2) There are no thermally accessible electronically excited states
  (3) Hindered rotations indicated by low frequency modes are not
      treated as such but are treated as vibrations and this may
      cause some error
  (4) All equations used are the standard statistical mechanics
      equations for an ideal gas
  (5) All vibrations are strictly harmonic

freq.      34.14  E(vib)   ...       0.55 
freq.     154.35  E(vib)   ...       0.40 
freq.     154.39  E(vib)   ...       0.40 
freq.     265.59  E(vib)   ...       0.29 
freq.     324.83  E(vib)   ...       0.24 
freq.     324.97  E(vib)   ...       0.24 
freq.     430.90  E(vib)   ...       0.18 
freq.     430.94  E(vib)   ...       0.18 
freq.     450.14  E(vib)   ...       0.17 
freq.     577.13  E(vib)   ...       0.11 
freq.     577.41  E(vib)   ...       0.11 
freq.     585.12  E(vib)   ...       0.11 
freq.     585.41  E(vib)   ...       0.11 
freq.     779.53  E(vib)   ...       0.05 
freq.     779.63  E(vib)   ...       0.05 
freq.     799.04  E(vib)   ...       0.05 
freq.     814.30  E(vib)   ...       0.05 
freq.     814.72  E(vib)   ...       0.05 
freq.     817.65  E(vib)   ...       0.05 
freq.     843.11  E(vib)   ...       0.04 
freq.     843.15  E(vib)   ...       0.04 
freq.     851.81  E(vib)   ...       0.04 
freq.     851.88  E(vib)   ...       0.04 
freq.     862.79  E(vib)   ...       0.04 
freq.     862.86  E(vib)   ...       0.04 
freq.     870.03  E(vib)   ...       0.04 
freq.     870.07  E(vib)   ...       0.04 
freq.    1018.61  E(vib)   ...       0.02 
freq.    1018.96  E(vib)   ...       0.02 
freq.    1024.62  E(vib)   ...       0.02 
freq.    1025.20  E(vib)   ...       0.02 
freq.    1081.98  E(vib)   ...       0.02 
freq.    1082.00  E(vib)   ...       0.02 
freq.    1090.85  E(vib)   ...       0.02 
freq.    1090.90  E(vib)   ...       0.02 
freq.    1119.84  E(vib)   ...       0.01 
freq.    1121.96  E(vib)   ...       0.01 
freq.    1292.87  E(vib)   ...       0.01 
freq.    1293.40  E(vib)   ...       0.01 
freq.    1372.93  E(vib)   ...       0.01 
freq.    1373.26  E(vib)   ...       0.01 
freq.    1392.62  E(vib)   ...       0.00 
freq.    1392.65  E(vib)   ...       0.00 
freq.    1440.39  E(vib)   ...       0.00 
freq.    1440.85  E(vib)   ...       0.00 
freq.    1440.97  E(vib)   ...       0.00 
freq.    1441.22  E(vib)   ...       0.00 
freq.    3261.02  E(vib)   ...       0.00 
freq.    3261.16  E(vib)   ...       0.00 
freq.    3261.89  E(vib)   ...       0.00 
freq.    3262.04  E(vib)   ...       0.00 
freq.    3277.99  E(vib)   ...       0.00 
freq.    3278.56  E(vib)   ...       0.00 
freq.    3279.30  E(vib)   ...       0.00 
freq.    3279.53  E(vib)   ...       0.00 
freq.    3299.22  E(vib)   ...       0.00 
freq.    3299.33  E(vib)   ...       0.00 

------------
INNER ENERGY
------------

The inner energy is: U= E(el) + E(ZPE) + E(vib) + E(rot) + E(trans)
    E(el)   - is the total energy from the electronic structure calculation
              = E(kin-el) + E(nuc-el) + E(el-el) + E(nuc-nuc)
    E(ZPE)  - the the zero temperature vibrational energy from the frequency calculation
    E(vib)  - the the finite temperature correction to E(ZPE) due to population
              of excited vibrational states
    E(rot)  - is the rotational thermal energy
    E(trans)- is the translational thermal energy

Summary of contributions to the inner energy U:
Electronic energy                ...   -510.12625744 Eh
Zero point energy                ...      0.16829271 Eh     105.61 kcal/mol
Thermal vibrational correction   ...      0.00623687 Eh       3.91 kcal/mol
Thermal rotational correction    ...      0.00141627 Eh       0.89 kcal/mol
Thermal translational correction ...      0.00141627 Eh       0.89 kcal/mol
-----------------------------------------------------------------------
Total thermal energy                   -509.94889531 Eh


Summary of corrections to the electronic energy:
(perhaps to be used in another calculation)
Total thermal correction                  0.00906942 Eh       5.69 kcal/mol
Non-thermal (ZPE) correction              0.16829271 Eh     105.61 kcal/mol
-----------------------------------------------------------------------
Total correction                          0.17736213 Eh     111.30 kcal/mol


--------
ENTHALPY
--------

The enthalpy is H = U + kB*T
                kB is Boltzmann's constant
Total free energy                 ...   -509.94889531 Eh 
Thermal Enthalpy correction       ...      0.00094421 Eh       0.59 kcal/mol
-----------------------------------------------------------------------
Total Enthalpy                    ...   -509.94795110 Eh


Note: Only C1 symmetry has been detected, increase convergence thresholds 
      if your molecule has a higher symmetry. Symmetry factor of 1.0 is   
      used for the rotational entropy correction. 
 

Note: Rotational entropy computed according to Herzberg 
Infrared and Raman Spectra, Chapter V,1, Van Nostrand Reinhold, 1945 
Point Group:  C1, Symmetry Number:   1  
Rotational constants in cm-1:     0.071778     0.033203     0.033202 

Vibrational entropy computed according to the QRRHO of S. Grimme
Chem.Eur.J. 2012 18 9955


-------
ENTROPY
-------

The entropy contributions are T*S = T*(S(el)+S(vib)+S(rot)+S(trans))
     S(el)   - electronic entropy
     S(vib)  - vibrational entropy
     S(rot)  - rotational entropy
     S(trans)- translational entropy
The entropies will be listed as multiplied by the temperature to get
units of energy

Electronic entropy                ...      0.00000000 Eh      0.00 kcal/mol
Vibrational entropy               ...      0.01010210 Eh      6.34 kcal/mol
Rotational entropy                ...      0.01396944 Eh      8.77 kcal/mol
Translational entropy             ...      0.01975045 Eh     12.39 kcal/mol
-----------------------------------------------------------------------
Final entropy term                ...      0.04382198 Eh     27.50 kcal/mol

In case the symmetry of your molecule has not been determined correctly
or in case you have a reason to use a different symmetry number we print 
out the resulting rotational entropy values for sn=1,12 :
 --------------------------------------------------------
|  sn= 1 | S(rot)=       0.01396944 Eh      8.77 kcal/mol|
|  sn= 2 | S(rot)=       0.01331498 Eh      8.36 kcal/mol|
|  sn= 3 | S(rot)=       0.01293215 Eh      8.12 kcal/mol|
|  sn= 4 | S(rot)=       0.01266052 Eh      7.94 kcal/mol|
|  sn= 5 | S(rot)=       0.01244984 Eh      7.81 kcal/mol|
|  sn= 6 | S(rot)=       0.01227769 Eh      7.70 kcal/mol|
|  sn= 7 | S(rot)=       0.01213215 Eh      7.61 kcal/mol|
|  sn= 8 | S(rot)=       0.01200607 Eh      7.53 kcal/mol|
|  sn= 9 | S(rot)=       0.01189486 Eh      7.46 kcal/mol|
|  sn=10 | S(rot)=       0.01179538 Eh      7.40 kcal/mol|
|  sn=11 | S(rot)=       0.01170539 Eh      7.35 kcal/mol|
|  sn=12 | S(rot)=       0.01162324 Eh      7.29 kcal/mol|
 --------------------------------------------------------


-------------------
GIBBS FREE ENERGY
-------------------

The Gibbs free energy is G = H - T*S

Total enthalpy                    ...   -509.94795110 Eh 
Total entropy correction          ...     -0.04382198 Eh    -27.50 kcal/mol
-----------------------------------------------------------------------
Final Gibbs free energy         ...   -509.99177308 Eh

For completeness - the Gibbs free energy minus the electronic energy
G-E(el)                           ...      0.13448435 Eh     84.39 kcal/mol


Timings for individual modules:

Sum of individual times         ...      108.771 sec (=   1.813 min)
GTO integral calculation        ...        4.297 sec (=   0.072 min)   4.0 %
SCF iterations                  ...       42.328 sec (=   0.705 min)  38.9 %
Analytical frequency calculation...       62.145 sec (=   1.036 min)  57.1 %
                             ****ORCA TERMINATED NORMALLY****
TOTAL RUN TIME: 0 days 0 hours 1 minutes 55 seconds 596 msec
