
                                 *****************
                                 * O   R   C   A *
                                 *****************

                                            #,                                       
                                            ###                                      
                                            ####                                     
                                            #####                                    
                                            ######                                   
                                           ########,                                 
                                     ,,################,,,,,                         
                               ,,#################################,,                 
                          ,,##########################################,,             
                       ,#########################################, ''#####,          
                    ,#############################################,,   '####,        
                  ,##################################################,,,,####,       
                ,###########''''           ''''###############################       
              ,#####''   ,,,,##########,,,,          '''####'''          '####       
            ,##' ,,,,###########################,,,                        '##       
           ' ,,###''''                  '''############,,,                           
         ,,##''                                '''############,,,,        ,,,,,,###''
      ,#''                                            '''#######################'''  
     '                                                          ''''####''''         
             ,#######,   #######,   ,#######,      ##                                
            ,#'     '#,  ##    ##  ,#'     '#,    #''#        ######   ,####,        
            ##       ##  ##   ,#'  ##            #'  '#       #        #'  '#        
            ##       ##  #######   ##           ,######,      #####,   #    #        
            '#,     ,#'  ##    ##  '#,     ,#' ,#      #,         ##   #,  ,#        
             '#######'   ##     ##  '#######'  #'      '#     #####' # '####'        



                  #######################################################
                  #                        -***-                        #
                  #          Department of theory and spectroscopy      #
                  #    Directorship and core code : Frank Neese         #
                  #        Max Planck Institute fuer Kohlenforschung    #
                  #                Kaiser Wilhelm Platz 1               #
                  #                 D-45470 Muelheim/Ruhr               #
                  #                      Germany                        #
                  #                                                     #
                  #                  All rights reserved                #
                  #                        -***-                        #
                  #######################################################


                         Program Version 5.0.2 -  RELEASE  -


 With contributions from (in alphabetic order):
   Daniel Aravena         : Magnetic Suceptibility
   Michael Atanasov       : Ab Initio Ligand Field Theory (pilot matlab implementation)
   Alexander A. Auer      : GIAO ZORA, VPT2 properties, NMR spectrum
   Ute Becker             : Parallelization
   Giovanni Bistoni       : ED, misc. LED, open-shell LED, HFLD
   Martin Brehm           : Molecular dynamics
   Dmytro Bykov           : SCF Hessian
   Vijay G. Chilkuri      : MRCI spin determinant printing, contributions to CSF-ICE
   Dipayan Datta          : RHF DLPNO-CCSD density
   Achintya Kumar Dutta   : EOM-CC, STEOM-CC
   Dmitry Ganyushin       : Spin-Orbit,Spin-Spin,Magnetic field MRCI
   Miquel Garcia          : C-PCM and meta-GGA Hessian, CC/C-PCM, Gaussian charge scheme
   Yang Guo               : DLPNO-NEVPT2, F12-NEVPT2, CIM, IAO-localization
   Andreas Hansen         : Spin unrestricted coupled pair/coupled cluster methods
   Benjamin Helmich-Paris : MC-RPA, TRAH-SCF, COSX integrals
   Lee Huntington         : MR-EOM, pCC
   Robert Izsak           : Overlap fitted RIJCOSX, COSX-SCS-MP3, EOM
   Marcus Kettner         : VPT2
   Christian Kollmar      : KDIIS, OOCD, Brueckner-CCSD(T), CCSD density, CASPT2, CASPT2-K
   Simone Kossmann        : Meta GGA functionals, TD-DFT gradient, OOMP2, MP2 Hessian
   Martin Krupicka        : Initial AUTO-CI
   Lucas Lang             : DCDCAS
   Marvin Lechner         : AUTO-CI (C++ implementation), FIC-MRCC
   Dagmar Lenk            : GEPOL surface, SMD
   Dimitrios Liakos       : Extrapolation schemes; Compound Job, initial MDCI parallelization
   Dimitrios Manganas     : Further ROCIS development; embedding schemes
   Dimitrios Pantazis     : SARC Basis sets
   Anastasios Papadopoulos: AUTO-CI, single reference methods and gradients
   Taras Petrenko         : DFT Hessian,TD-DFT gradient, ASA, ECA, R-Raman, ABS, FL, XAS/XES, NRVS
   Peter Pinski           : DLPNO-MP2, DLPNO-MP2 Gradient
   Christoph Reimann      : Effective Core Potentials
   Marius Retegan         : Local ZFS, SOC
   Christoph Riplinger    : Optimizer, TS searches, QM/MM, DLPNO-CCSD(T), (RO)-DLPNO pert. Triples
   Tobias Risthaus        : Range-separated hybrids, TD-DFT gradient, RPA, STAB
   Michael Roemelt        : Original ROCIS implementation
   Masaaki Saitow         : Open-shell DLPNO-CCSD energy and density
   Barbara Sandhoefer     : DKH picture change effects
   Avijit Sen             : IP-ROCIS
   Kantharuban Sivalingam : CASSCF convergence, NEVPT2, FIC-MRCI
   Bernardo de Souza      : ESD, SOC TD-DFT
   Georgi Stoychev        : AutoAux, RI-MP2 NMR, DLPNO-MP2 response
   Willem Van den Heuvel  : Paramagnetic NMR
   Boris Wezisla          : Elementary symmetry handling
   Frank Wennmohs         : Technical directorship


 We gratefully acknowledge several colleagues who have allowed us to
 interface, adapt or use parts of their codes:
   Stefan Grimme, W. Hujo, H. Kruse, P. Pracht,  : VdW corrections, initial TS optimization,
                  C. Bannwarth, S. Ehlert          DFT functionals, gCP, sTDA/sTD-DF
   Ed Valeev, F. Pavosevic, A. Kumar             : LibInt (2-el integral package), F12 methods
   Garnet Chan, S. Sharma, J. Yang, R. Olivares  : DMRG
   Ulf Ekstrom                                   : XCFun DFT Library
   Mihaly Kallay                                 : mrcc  (arbitrary order and MRCC methods)
   Jiri Pittner, Ondrej Demel                    : Mk-CCSD
   Frank Weinhold                                : gennbo (NPA and NBO analysis)
   Christopher J. Cramer and Donald G. Truhlar   : smd solvation model
   Lars Goerigk                                  : TD-DFT with DH, B97 family of functionals
   V. Asgeirsson, H. Jonsson                     : NEB implementation
   FAccTs GmbH                                   : IRC, NEB, NEB-TS, DLPNO-Multilevel, CI-OPT
                                                   MM, QMMM, 2- and 3-layer-ONIOM, Crystal-QMMM,
                                                   LR-CPCM, SF, NACMEs, symmetry and pop. for TD-DFT,
                                                   nearIR, NL-DFT gradient (VV10), updates on ESD,
                                                   ML-optimized integration grids
   S Lehtola, MJT Oliveira, MAL Marques          : LibXC Library
   Liviu Ungur et al                             : ANISO software


 Your calculation uses the libint2 library for the computation of 2-el integrals
 For citations please refer to: http://libint.valeyev.net

 Your ORCA version has been built with support for libXC version: 5.1.0
 For citations please refer to: https://tddft.org/programs/libxc/

 This ORCA versions uses:
   CBLAS   interface :  Fast vector & matrix operations
   LAPACKE interface :  Fast linear algebra routines
   SCALAPACK package :  Parallel linear algebra routines
   Shared memory     :  Shared parallel matrices
   BLAS/LAPACK       :  OpenBLAS 0.3.15  USE64BITINT DYNAMIC_ARCH NO_AFFINITY Prescott SINGLE_THREADED
        Core in use  :  Prescott
   Copyright (c) 2011-2014, The OpenBLAS Project


================================================================================

cite the ECPs for Fe [HayWadt] as follows:
H  - Ne: T. H. Dunning Jr. and P. J. Hay, Methods El. Str. Th. Vol. 2, PLENUM PRESS (1977)
Na - Hg: P. J. Hay and W. R. Wadt, J. Chem. Phys. 82, 270 (1985)
P. J. Hay and W. R. Wadt, J. Chem. Phys. 82, 284 (1985)
P. J. Hay and W. R. Wadt, J. Chem. Phys. 82, 299 (1985)


ECP parameters for Fe [HayWadt] have been obtained from:
LANL2DZ ECP  EMSL  Basis Set Exchange Library   5/31/16 12:35 AM

----- Orbital basis set information -----
Your calculation utilizes the basis: LANL2DZ 
   H - Ne   : T. H. Dunning Jr. and P. J. Hay, Methods of Electronic Structure Theory, Vol. 2, ed. H. F. Schaefer III, Plenum Press (1977).
   Na - Hg  : P. J. Hay and W. R. Wadt, J. Chem. Phys. 82, 270 (1985).
              P. J. Hay and W. R. Wadt, J. Chem. Phys. 82, 284 (1985).
              P. J. Hay and W. R. Wadt, J. Chem. Phys. 82, 299 (1985).

----- AuxJ basis set information -----
Your calculation utilizes the auxiliary basis: def2/J
   F. Weigend, Phys. Chem. Chem. Phys. 8, 1057 (2006).

================================================================================
                                        WARNINGS
                       Please study these warnings very carefully!
================================================================================


WARNING: Geometry Optimization
  ===> : Switching off AutoStart
         For restart on a previous wavefunction, please use MOREAD

INFO   : the flag for use of the SHARK integral package has been found!

================================================================================
                                       INPUT FILE
================================================================================
NAME = FeCP2_plus2_small_opt.orca
|  1> ! B3LYP lanl2dz OPT
|  2> 
|  3> %pal
|  4> nprocs 16
|  5> end
|  6> 
|  7> %maxcore 8192
|  8> 
|  9> * xyz 0 1
| 10> Fe  -5.81900000  -3.84000000  -1.54100000
| 11> H  -5.31900000  -1.44400000  -2.94700000
| 12> C  -5.55100000  -1.83000000  -1.96400000
| 13> H  -7.79200000  -1.86700000  -1.95300000
| 14> H  -3.52800000  -2.25400000  -1.09700000
| 15> C  -6.85900000  -2.05600000  -1.43900000
| 16> C  -4.60300000  -2.25800000  -0.98500000
| 17> C  -6.72100000  -2.62400000  -0.13500000
| 18> C  -5.32600000  -2.74700000  0.14600000
| 19> H  -7.53000000  -2.94100000  0.50900000
| 20> H  -4.89300000  -3.17600000  1.03900000
| 21> H  -4.89400000  -4.50400000  -4.12300000
| 22> C  -5.32500000  -4.93300000  -3.22900000
| 23> H  -7.52900000  -4.74500000  -3.59000000
| 24> H  -3.52400000  -5.42100000  -1.98800000
| 25> C  -6.71900000  -5.06000000  -2.94700000
| 26> C  -4.60000000  -5.41900000  -2.09900000
| 27> C  -6.85500000  -5.62700000  -1.64300000
| 28> C  -5.54500000  -5.85000000  -1.11900000
| 29> H  -7.78600000  -5.81800000  -1.12700000
| 30> H  -5.31100000  -6.23500000  -0.13600000
| 31> **                         ****END OF INPUT****
================================================================================

                       *****************************
                       * Geometry Optimization Run *
                       *****************************

Geometry optimization settings:
Update method            Update   .... BFGS
Choice of coordinates    CoordSys .... Z-matrix Internals
Initial Hessian          InHess   .... Almoef's Model

Convergence Tolerances:
Energy Change            TolE     ....  5.0000e-06 Eh
Max. Gradient            TolMAXG  ....  3.0000e-04 Eh/bohr
RMS Gradient             TolRMSG  ....  1.0000e-04 Eh/bohr
Max. Displacement        TolMAXD  ....  4.0000e-03 bohr
RMS Displacement         TolRMSD  ....  2.0000e-03 bohr
Strict Convergence                ....  False
------------------------------------------------------------------------------
                        ORCA OPTIMIZATION COORDINATE SETUP
------------------------------------------------------------------------------

The optimization will be done in new redundant internal coordinates
Making redundant internal coordinates   ...  (new redundants) done
Evaluating the initial hessian          ...  (Almloef) done
Evaluating the coordinates              ...  done
Calculating the B-matrix                .... done
Calculating the G-matrix                .... done
Diagonalizing the G-matrix              .... done
The first mode is                       ....  408
The number of degrees of freedom        ....   57

    -----------------------------------------------------------------
                    Redundant Internal Coordinates


    -----------------------------------------------------------------
         Definition                    Initial Value    Approx d2E/dq
    -----------------------------------------------------------------
      1. B(C   2,Fe  0)                  2.0714         0.517218   
      2. B(C   2,H   1)                  1.0813         0.371858   
      3. B(C   5,C   2)                  1.4274         0.544523   
      4. B(C   5,H   3)                  1.0819         0.371040   
      5. B(C   5,Fe  0)                  2.0675         0.524705   
      6. B(C   6,C   2)                  1.4284         0.542591   
      7. B(C   6,Fe  0)                  2.0714         0.517372   
      8. B(C   6,H   4)                  1.0808         0.372443   
      9. B(C   7,C   5)                  1.4290         0.541368   
     10. B(C   7,Fe  0)                  2.0662         0.527306   
     11. B(C   8,C   7)                  1.4283         0.542740   
     12. B(C   8,C   6)                  1.4286         0.542115   
     13. B(C   8,Fe  0)                  2.0697         0.520525   
     14. B(H   9,C   7)                  1.0815         0.371482   
     15. B(H  10,C   8)                  1.0812         0.371941   
     16. B(C  12,H  11)                  1.0812         0.371903   
     17. B(C  12,Fe  0)                  2.0708         0.518515   
     18. B(C  15,H  13)                  1.0811         0.372070   
     19. B(C  15,C  12)                  1.4279         0.543597   
     20. B(C  15,Fe  0)                  2.0677         0.524437   
     21. B(C  16,H  14)                  1.0817         0.371232   
     22. B(C  16,C  12)                  1.4278         0.543714   
     23. B(C  16,Fe  0)                  2.0714         0.517349   
     24. B(C  17,C  15)                  1.4284         0.542541   
     25. B(C  17,Fe  0)                  2.0681         0.523584   
     26. B(C  18,C  17)                  1.4284         0.542538   
     27. B(C  18,C  16)                  1.4280         0.543389   
     28. B(C  18,Fe  0)                  2.0720         0.516115   
     29. B(H  19,C  17)                  1.0814         0.371613   
     30. B(H  20,C  18)                  1.0813         0.371757   
     31. A(C   7,Fe  0,C   8)           40.4062         0.515484   
     32. A(C   6,Fe  0,C  17)          165.2975         0.514215   
     33. A(C   5,Fe  0,C  15)          108.8881         0.515729   
     34. A(C   6,Fe  0,C  15)          152.7101         0.514372   
     35. A(C   6,Fe  0,C   8)           40.3628         0.513652   
     36. A(C   8,Fe  0,C  15)          165.8213         0.514957   
     37. A(C   2,Fe  0,C  15)          119.3402         0.514343   
     38. A(C   2,Fe  0,C   6)           40.3382         0.513040   
     39. A(C   2,Fe  0,C  17)          153.2765         0.514187   
     40. A(C   5,Fe  0,C   8)           67.9095         0.515007   
     41. A(C  12,Fe  0,C  15)           40.3677         0.514585   
     42. A(C   2,Fe  0,C   7)           67.9367         0.514869   
     43. A(C   6,Fe  0,C  16)          108.0010         0.513064   
     44. A(C   7,Fe  0,C  16)          152.7301         0.514894   
     45. A(C   5,Fe  0,C  17)          119.7379         0.515572   
     46. A(C  15,Fe  0,C  18)           67.8937         0.514138   
     47. A(C  16,Fe  0,C  18)           40.3203         0.512831   
     48. A(C   5,Fe  0,C   7)           40.4489         0.516257   
     49. A(C   2,Fe  0,C  16)          127.4839         0.513035   
     50. A(C   2,Fe  0,C   8)           67.8642         0.513623   
     51. A(C   8,Fe  0,C  18)          108.3477         0.513418   
     52. A(C   6,Fe  0,C  18)          127.4877         0.512835   
     53. A(C  15,Fe  0,C  16)           67.8639         0.514368   
     54. A(C   5,Fe  0,C  16)          165.2571         0.514417   
     55. A(C   2,Fe  0,C  18)          164.9673         0.512806   
     56. A(C  16,Fe  0,C  17)           67.8418         0.514211   
     57. A(C   8,Fe  0,C  16)          118.8136         0.513648   
     58. A(C  12,Fe  0,C  16)           40.3284         0.513276   
     59. A(C  15,Fe  0,C  17)           40.4104         0.515523   
     60. A(C   5,Fe  0,C  18)          153.3178         0.514187   
     61. A(C   2,Fe  0,C  12)          108.3515         0.513251   
     62. A(C   7,Fe  0,C  18)          119.3438         0.514663   
     63. A(C   7,Fe  0,C  15)          128.3130         0.516207   
     64. A(C   7,Fe  0,C  17)          108.8689         0.516050   
     65. A(C   6,Fe  0,C   7)           67.9223         0.514898   
     66. A(C   8,Fe  0,C  17)          128.0128         0.514801   
     67. A(C   5,Fe  0,C   6)           67.8545         0.514421   
     68. A(C  12,Fe  0,C  17)           67.8655         0.514428   
     69. A(C   2,Fe  0,C   5)           40.3484         0.514393   
     70. A(C  12,Fe  0,C  18)           67.8177         0.513047   
     71. A(C   5,Fe  0,C  12)          127.9999         0.514634   
     72. A(C   6,Fe  0,C  12)          118.8088         0.513280   
     73. A(C   7,Fe  0,C  12)          165.8099         0.515110   
     74. A(C   8,Fe  0,C  12)          152.4182         0.513864   
     75. A(C  17,Fe  0,C  18)           40.3659         0.513981   
     76. A(Fe  0,C   2,C   5)           69.6784         0.460432   
     77. A(C   5,C   2,C   6)          107.9767         0.414112   
     78. A(Fe  0,C   2,H   1)          124.0430         0.383680   
     79. A(Fe  0,C   2,C   6)           69.8279         0.460134   
     80. A(H   1,C   2,C   5)          125.9802         0.347138   
     81. A(H   1,C   2,C   6)          125.9916         0.346931   
     82. A(C   2,C   5,H   3)          126.0046         0.347010   
     83. A(Fe  0,C   5,H   3)          124.1326         0.384492   
     84. A(Fe  0,C   5,C   2)           69.9732         0.461643   
     85. A(H   3,C   5,C   7)          125.8927         0.346671   
     86. A(C   2,C   5,C   7)          108.0627         0.413946   
     87. A(Fe  0,C   5,C   7)           69.7249         0.461153   
     88. A(C   2,C   6,H   4)          126.0131         0.347022   
     89. A(H   4,C   6,C   8)          125.9197         0.346971   
     90. A(Fe  0,C   6,H   4)          123.9799         0.383804   
     91. A(C   2,C   6,C   8)          108.0158         0.413786   
     92. A(Fe  0,C   6,C   8)           69.7563         0.460085   
     93. A(Fe  0,C   6,C   2)           69.8340         0.460159   
     94. A(Fe  0,C   7,C   8)           69.9295         0.461783   
     95. A(Fe  0,C   7,C   5)           69.8262         0.461570   
     96. A(C   8,C   7,H   9)          126.0277         0.346888   
     97. A(C   5,C   7,H   9)          125.9888         0.346740   
     98. A(Fe  0,C   7,H   9)          124.0037         0.384903   
     99. A(C   5,C   7,C   8)          107.9429         0.413705   
    100. A(Fe  0,C   8,C   6)           69.8809         0.460596   
    101. A(C   7,C   8,H  10)          126.0009         0.346960   
    102. A(C   6,C   8,H  10)          125.9446         0.346893   
    103. A(Fe  0,C   8,H  10)          123.9917         0.384120   
    104. A(C   6,C   8,C   7)          108.0017         0.413806   
    105. A(Fe  0,C   8,C   7)           69.6643         0.460693   
    106. A(H  11,C  12,C  15)          125.9973         0.347046   
    107. A(Fe  0,C  12,C  15)           69.6997         0.460500   
    108. A(Fe  0,C  12,H  11)          124.0336         0.383855   
    109. A(C  15,C  12,C  16)          108.0072         0.414139   
    110. A(H  11,C  12,C  16)          125.9455         0.347059   
    111. A(Fe  0,C  12,C  16)           69.8589         0.460518   
    112. A(C  12,C  15,H  13)          126.0205         0.347072   
    113. A(Fe  0,C  15,H  13)          123.9619         0.384644   
    114. A(Fe  0,C  15,C  12)           69.9326         0.461456   
    115. A(H  13,C  15,C  17)          125.9642         0.346959   
    116. A(C  12,C  15,C  17)          107.9715         0.413980   
    117. A(Fe  0,C  15,C  17)           69.8115         0.461292   
    118. A(H  14,C  16,C  18)          125.9649         0.346918   
    119. A(C  12,C  16,C  18)          108.0493         0.414111   
    120. A(Fe  0,C  16,C  18)           69.8643         0.460279   
    121. A(C  12,C  16,H  14)          125.9387         0.346953   
    122. A(Fe  0,C  16,H  14)          123.9976         0.383584   
    123. A(Fe  0,C  16,C  12)           69.8127         0.460329   
    124. A(C  18,C  17,H  19)          125.9382         0.346887   
    125. A(C  15,C  17,H  19)          125.9907         0.346887   
    126. A(Fe  0,C  17,H  19)          124.0790         0.384452   
    127. A(C  15,C  17,C  18)          108.0312         0.413837   
    128. A(Fe  0,C  17,C  18)           69.9643         0.461154   
    129. A(Fe  0,C  17,C  15)           69.7781         0.461155   
    130. A(C  17,C  18,H  20)          125.9814         0.346909   
    131. A(C  16,C  18,H  20)          126.0240         0.347001   
    132. A(Fe  0,C  18,H  20)          123.9970         0.383519   
    133. A(C  16,C  18,C  17)          107.9405         0.413951   
    134. A(Fe  0,C  18,C  17)           69.6698         0.459946   
    135. A(Fe  0,C  18,C  16)           69.8153         0.460078   
    136. D(H   1,C   2,Fe  0,C  17)    -69.7606         0.003114   
    137. D(C   6,C   2,Fe  0,C  12)   -113.1870         0.003114   
    138. D(H   1,C   2,Fe  0,C  12)      7.3011         0.003114   
    139. D(H   1,C   2,Fe  0,C   5)   -120.3896         0.003114   
    140. D(C   5,C   2,Fe  0,C  18)   -159.6764         0.003114   
    141. D(C   5,C   2,Fe  0,C  12)    127.6907         0.003114   
    142. D(H   1,C   2,Fe  0,C  16)     48.0303         0.003114   
    143. D(C   5,C   2,Fe  0,C  17)     50.6290         0.003114   
    144. D(C   6,C   2,Fe  0,C  15)   -155.9310         0.003114   
    145. D(C   6,C   2,Fe  0,C   5)    119.1224         0.003114   
    146. D(C   5,C   2,Fe  0,C   8)    -81.4751         0.003114   
    147. D(C   5,C   2,Fe  0,C  16)    168.4199         0.003114   
    148. D(H   1,C   2,Fe  0,C   7)   -158.0963         0.003114   
    149. D(H   1,C   2,Fe  0,C  15)    -35.4430         0.003114   
    150. D(C   6,C   2,Fe  0,C  18)    -40.5540         0.003114   
    151. D(C   6,C   2,Fe  0,C  17)    169.7513         0.003114   
    152. D(C   6,C   2,Fe  0,C  16)    -72.4578         0.003114   
    153. D(C   5,C   2,Fe  0,C   7)    -37.7067         0.003114   
    154. D(C   5,C   2,Fe  0,C   6)   -119.1224         0.003114   
    155. D(H   1,C   2,Fe  0,C   8)    158.1352         0.003114   
    156. D(C   6,C   2,Fe  0,C   7)     81.4157         0.003114   
    157. D(C   6,C   2,Fe  0,C   8)     37.6472         0.003114   
    158. D(H   1,C   2,Fe  0,C  18)     79.9340         0.003114   
    159. D(H   1,C   2,Fe  0,C   6)    120.4880         0.003114   
    160. D(C   5,C   2,Fe  0,C  15)     84.9466         0.003114   
    161. D(C   2,C   5,Fe  0,C  16)    -38.7514         0.003161   
    162. D(C   2,C   5,Fe  0,C  15)   -113.3997         0.003161   
    163. D(C   2,C   5,Fe  0,C   8)     81.3532         0.003161   
    164. D(Fe  0,C   5,C   2,C   6)    -59.5512         0.023615   
    165. D(H   3,C   5,Fe  0,C  16)     81.8329         0.003161   
    166. D(C   7,C   5,Fe  0,C  18)     49.3186         0.003161   
    167. D(Fe  0,C   5,C   2,H   1)    117.9590         0.023615   
    168. D(C   7,C   5,Fe  0,C  17)     84.4921         0.003161   
    169. D(H   3,C   5,C   2,H   1)     -0.2950         0.023615   
    170. D(C   7,C   5,Fe  0,C  16)   -157.8598         0.003161   
    171. D(C   7,C   5,C   2,Fe  0)     59.5475         0.023615   
    172. D(C   7,C   5,Fe  0,C  12)    168.5029         0.003161   
    173. D(C   7,C   5,Fe  0,C   2)   -119.1084         0.003161   
    174. D(C   7,C   5,Fe  0,C  15)    127.4918         0.003161   
    175. D(C   7,C   5,Fe  0,C   6)    -81.4824         0.003161   
    176. D(H   3,C   5,Fe  0,C  17)    -35.8153         0.003161   
    177. D(C   2,C   5,Fe  0,C  18)    168.4270         0.003161   
    178. D(H   3,C   5,Fe  0,C  15)      7.1845         0.003161   
    179. D(C   7,C   5,C   2,C   6)     -0.0037         0.023615   
    180. D(H   3,C   5,Fe  0,C  12)     48.1956         0.003161   
    181. D(H   3,C   5,Fe  0,C   6)    158.2102         0.003161   
    182. D(H   3,C   5,Fe  0,C   2)    120.5842         0.003161   
    183. D(C   7,C   5,C   2,H   1)    177.5065         0.023615   
    184. D(H   3,C   5,C   2,Fe  0)   -118.2540         0.023615   
    185. D(H   3,C   5,Fe  0,C  18)    -70.9887         0.003161   
    186. D(C   2,C   5,Fe  0,C  12)    -72.3887         0.003161   
    187. D(C   2,C   5,Fe  0,C   6)     37.6260         0.003161   
    188. D(H   3,C   5,C   2,C   6)   -177.8052         0.023615   
    189. D(C   2,C   5,Fe  0,C   7)    119.1084         0.003161   
    190. D(C   7,C   5,Fe  0,C   8)    -37.7553         0.003161   
    191. D(H   3,C   5,Fe  0,C   7)   -120.3073         0.003161   
    192. D(C   2,C   5,Fe  0,C  17)   -156.3995         0.003161   
    193. D(H   3,C   5,Fe  0,C   8)   -158.0626         0.003161   
    194. D(C   2,C   6,Fe  0,C  15)     50.8424         0.003115   
    195. D(C   2,C   6,Fe  0,C  12)     84.6923         0.003115   
    196. D(C   2,C   6,Fe  0,C   7)    -81.4543         0.003115   
    197. D(H   4,C   6,C   2,H   1)     -0.0748         0.023440   
    198. D(C   8,C   6,C   2,Fe  0)    -59.5322         0.023440   
    199. D(H   4,C   6,C   2,C   5)    177.4351         0.023440   
    200. D(C   8,C   6,C   2,H   1)   -177.5844         0.023440   
    201. D(H   4,C   6,C   2,Fe  0)    117.9775         0.023440   
    202. D(Fe  0,C   6,C   2,C   5)     59.4576         0.023440   
    203. D(Fe  0,C   6,C   2,H   1)   -118.0523         0.023440   
    204. D(C   8,C   6,Fe  0,C  18)    -73.1522         0.003115   
    205. D(C   8,C   6,Fe  0,C  17)    -42.5065         0.003115   
    206. D(C   8,C   6,Fe  0,C  15)    169.9604         0.003115   
    207. D(C   8,C   6,C   2,C   5)     -0.0746         0.023440   
    208. D(C   2,C   6,Fe  0,C   8)   -119.1180         0.003115   
    209. D(C   8,C   6,Fe  0,C   2)    119.1180         0.003115   
    210. D(H   4,C   6,Fe  0,C  12)    -35.8270         0.003115   
    211. D(C   2,C   6,Fe  0,C  18)    167.7298         0.003115   
    212. D(H   4,C   6,Fe  0,C  16)      6.7722         0.003115   
    213. D(H   4,C   6,Fe  0,C  17)     77.8561         0.003115   
    214. D(C   8,C   6,Fe  0,C   5)     81.4827         0.003115   
    215. D(H   4,C   6,Fe  0,C   2)   -120.5193         0.003115   
    216. D(C   8,C   6,Fe  0,C   7)     37.6637         0.003115   
    217. D(H   4,C   6,Fe  0,C   8)    120.3627         0.003115   
    218. D(H   4,C   6,Fe  0,C   5)   -158.1547         0.003115   
    219. D(H   4,C   6,Fe  0,C  15)    -69.6770         0.003115   
    220. D(C   8,C   6,Fe  0,C  12)   -156.1897         0.003115   
    221. D(H   4,C   6,Fe  0,C  18)     47.2105         0.003115   
    222. D(H   4,C   6,Fe  0,C   7)    158.0264         0.003115   
    223. D(C   2,C   6,Fe  0,C  17)   -161.6246         0.003115   
    224. D(C   2,C   6,Fe  0,C  16)    127.2915         0.003115   
    225. D(C   8,C   6,Fe  0,C  16)   -113.5905         0.003115   
    226. D(C   2,C   6,Fe  0,C   5)    -37.6353         0.003115   
    227. D(H   9,C   7,C   5,H   3)      0.0990         0.023330   
    228. D(H   9,C   7,C   5,Fe  0)   -118.0027         0.023330   
    229. D(C   8,C   7,C   5,C   2)      0.0805         0.023330   
    230. D(C   8,C   7,C   5,H   3)    177.8852         0.023330   
    231. D(H   9,C   7,Fe  0,C  18)    -36.5201         0.003177   
    232. D(H   9,C   7,C   5,C   2)   -177.7057         0.023330   
    233. D(H   9,C   7,Fe  0,C  17)      6.4613         0.003177   
    234. D(H   9,C   7,Fe  0,C  16)    -71.5978         0.003177   
    235. D(H   9,C   7,Fe  0,C  15)     47.3937         0.003177   
    236. D(H   9,C   7,Fe  0,C  12)     80.6395         0.003177   
    237. D(C   5,C   7,Fe  0,C  17)   -114.0235         0.003177   
    238. D(H   9,C   7,Fe  0,C   2)    158.1004         0.003177   
    239. D(C   8,C   7,Fe  0,C  12)   -158.7702         0.003177   
    240. D(C   8,C   7,Fe  0,C  15)    167.9840         0.003177   
    241. D(C   8,C   7,Fe  0,C  16)     48.9926         0.003177   
    242. D(C   8,C   7,Fe  0,C   6)    -37.6244         0.003177   
    243. D(C   8,C   7,Fe  0,C  17)    127.0517         0.003177   
    244. D(C   5,C   7,Fe  0,C  18)   -157.0050         0.003177   
    245. D(C   8,C   7,Fe  0,C   5)   -118.9248         0.003177   
    246. D(C   8,C   7,Fe  0,C  18)     84.0702         0.003177   
    247. D(C   8,C   7,Fe  0,C   2)    -81.3092         0.003177   
    248. D(H   9,C   7,Fe  0,C   6)   -158.2147         0.003177   
    249. D(H   9,C   7,Fe  0,C   8)   -120.5904         0.003177   
    250. D(H   9,C   7,Fe  0,C   5)    120.4848         0.003177   
    251. D(Fe  0,C   7,C   5,C   2)    -59.7029         0.023330   
    252. D(Fe  0,C   7,C   5,H   3)    118.1017         0.023330   
    253. D(C   8,C   7,C   5,Fe  0)     59.7835         0.023330   
    254. D(C   5,C   7,Fe  0,C  16)    167.9174         0.003177   
    255. D(C   5,C   7,Fe  0,C  15)    -73.0912         0.003177   
    256. D(C   5,C   7,Fe  0,C   2)     37.6156         0.003177   
    257. D(C   5,C   7,Fe  0,C   8)    118.9248         0.003177   
    258. D(C   5,C   7,Fe  0,C   6)     81.3004         0.003177   
    259. D(C   5,C   7,Fe  0,C  12)    -39.8454         0.003177   
    260. D(C   6,C   8,Fe  0,C   7)   -119.1288         0.003134   
    261. D(C   6,C   8,Fe  0,C   5)    -81.3347         0.003134   
    262. D(C   6,C   8,Fe  0,C   2)    -37.6248         0.003134   
    263. D(H  10,C   8,C   7,C   5)   -177.6046         0.023454   
    264. D(C   6,C   8,C   7,C   5)     -0.1265         0.023454   
    265. D(C   6,C   8,C   7,Fe  0)     59.5920         0.023454   
    266. D(C   7,C   8,C   6,C   2)      0.1244         0.023398   
    267. D(H  10,C   8,C   6,C   2)    177.6042         0.023398   
    268. D(Fe  0,C   8,C   7,C   5)    -59.7186         0.023454   
    269. D(Fe  0,C   8,C   7,H   9)    118.0665         0.023454   
    270. D(C   7,C   8,C   6,Fe  0)    -59.4564         0.023398   
    271. D(H  10,C   8,C   6,H   4)      0.0916         0.023398   
    272. D(Fe  0,C   8,C   6,C   2)     59.5808         0.023398   
    273. D(H  10,C   8,Fe  0,C  17)     46.9657         0.003134   
    274. D(H  10,C   8,C   7,Fe  0)   -117.8860         0.023454   
    275. D(H  10,C   8,Fe  0,C  15)     78.5821         0.003134   
    276. D(H  10,C   8,Fe  0,C  12)    -70.6446         0.003134   
    277. D(H  10,C   8,Fe  0,C   7)    120.4083         0.003134   
    278. D(H  10,C   8,C   7,H   9)      0.1805         0.023454   
    279. D(C   6,C   8,C   7,H   9)    177.6586         0.023454   
    280. D(H  10,C   8,Fe  0,C   6)   -120.4628         0.003134   
    281. D(H  10,C   8,Fe  0,C  16)    -36.3499         0.003134   
    282. D(C   7,C   8,Fe  0,C  18)   -114.0109         0.003134   
    283. D(H  10,C   8,Fe  0,C  18)      6.3975         0.003134   
    284. D(C   7,C   8,Fe  0,C   5)     37.7941         0.003134   
    285. D(Fe  0,C   8,C   6,H   4)   -117.9318         0.023398   
    286. D(C   7,C   8,Fe  0,C  15)    -41.8262         0.003134   
    287. D(C   7,C   8,Fe  0,C  12)    168.9470         0.003134   
    288. D(C   7,C   8,C   6,H   4)   -177.3882         0.023398   
    289. D(H  10,C   8,C   6,Fe  0)    118.0234         0.023398   
    290. D(C   7,C   8,Fe  0,C   6)    119.1288         0.003134   
    291. D(H  10,C   8,Fe  0,C   2)   -158.0877         0.003134   
    292. D(C   7,C   8,Fe  0,C  17)    -73.4426         0.003134   
    293. D(C   7,C   8,Fe  0,C   2)     81.5040         0.003134   
    294. D(C   6,C   8,Fe  0,C  18)    126.8603         0.003134   
    295. D(H  10,C   8,Fe  0,C   5)    158.2024         0.003134   
    296. D(C   6,C   8,Fe  0,C  17)    167.4285         0.003134   
    297. D(C   6,C   8,Fe  0,C  16)     84.1130         0.003134   
    298. D(C   6,C   8,Fe  0,C  15)   -160.9550         0.003134   
    299. D(C   6,C   8,Fe  0,C  12)     49.8182         0.003134   
    300. D(C   7,C   8,Fe  0,C  16)   -156.7582         0.003134   
    301. D(C  16,C  12,Fe  0,C  18)    -37.6287         0.003122   
    302. D(C  16,C  12,Fe  0,C  17)    -81.3725         0.003122   
    303. D(C  16,C  12,Fe  0,C  15)   -119.1272         0.003122   
    304. D(C  16,C  12,Fe  0,C   7)   -160.7442         0.003122   
    305. D(C  16,C  12,Fe  0,C   6)     84.0957         0.003122   
    306. D(C  16,C  12,Fe  0,C   5)    167.4190         0.003122   
    307. D(C  15,C  12,Fe  0,C  18)     81.4984         0.003122   
    308. D(C  15,C  12,Fe  0,C  17)     37.7547         0.003122   
    309. D(C  15,C  12,Fe  0,C  16)    119.1272         0.003122   
    310. D(C  15,C  12,Fe  0,C   8)    168.8431         0.003122   
    311. D(C  15,C  12,Fe  0,C   7)    -41.6170         0.003122   
    312. D(C  15,C  12,Fe  0,C   6)   -156.7771         0.003122   
    313. D(C  15,C  12,Fe  0,C   5)    -73.4539         0.003122   
    314. D(C  15,C  12,Fe  0,C   2)   -114.0071         0.003122   
    315. D(H  11,C  12,Fe  0,C  18)   -158.0790         0.003122   
    316. D(H  11,C  12,Fe  0,C  17)    158.1772         0.003122   
    317. D(C  16,C  12,Fe  0,C   2)    126.8657         0.003122   
    318. D(H  11,C  12,Fe  0,C  16)   -120.4503         0.003122   
    319. D(H  11,C  12,Fe  0,C  15)    120.4225         0.003122   
    320. D(H  11,C  12,Fe  0,C   8)    -70.7343         0.003122   
    321. D(C  16,C  12,Fe  0,C   8)     49.7160         0.003122   
    322. D(H  11,C  12,Fe  0,C   7)     78.8055         0.003122   
    323. D(H  11,C  12,Fe  0,C   6)    -36.3546         0.003122   
    324. D(H  11,C  12,Fe  0,C   5)     46.9687         0.003122   
    325. D(H  11,C  12,Fe  0,C   2)      6.4154         0.003122   
    326. D(C  17,C  15,C  12,H  11)   -177.6451         0.023531   
    327. D(C  17,C  15,C  12,Fe  0)    -59.6849         0.023531   
    328. D(H  13,C  15,C  12,C  16)    177.5999         0.023531   
    329. D(H  13,C  15,C  12,Fe  0)    118.0170         0.023531   
    330. D(Fe  0,C  15,C  12,C  16)     59.5829         0.023531   
    331. D(Fe  0,C  15,C  12,H  11)   -117.9602         0.023531   
    332. D(C  17,C  15,Fe  0,C  16)     81.3553         0.003159   
    333. D(C  17,C  15,Fe  0,C  12)    118.9674         0.003159   
    334. D(C  17,C  15,Fe  0,C   8)    -39.5784         0.003159   
    335. D(C  17,C  15,Fe  0,C   7)    -73.0083         0.003159   
    336. D(C  17,C  15,Fe  0,C   6)    167.8678         0.003159   
    337. D(C  17,C  15,Fe  0,C   5)   -114.0075         0.003159   
    338. D(C  17,C  15,Fe  0,C   2)   -156.9779         0.003159   
    339. D(H  13,C  15,Fe  0,C  18)    158.1215         0.003159   
    340. D(H  13,C  15,Fe  0,C  17)    120.4481         0.003159   
    341. D(H  13,C  15,Fe  0,C  16)   -158.1967         0.003159   
    342. D(H  13,C  15,Fe  0,C  12)   -120.5845         0.003159   
    343. D(H  13,C  15,Fe  0,C   8)     80.8697         0.003159   
    344. D(H  13,C  15,Fe  0,C   7)     47.4398         0.003159   
    345. D(H  13,C  15,Fe  0,C   6)    -71.6841         0.003159   
    346. D(H  13,C  15,Fe  0,C   5)      6.4406         0.003159   
    347. D(H  13,C  15,Fe  0,C   2)    -36.5299         0.003159   
    348. D(C  12,C  15,Fe  0,C  18)    -81.2940         0.003159   
    349. D(C  17,C  15,Fe  0,C  18)     37.6734         0.003159   
    350. D(C  12,C  15,Fe  0,C  17)   -118.9674         0.003159   
    351. D(C  12,C  15,Fe  0,C  16)    -37.6121         0.003159   
    352. D(C  12,C  15,Fe  0,C   8)   -158.5458         0.003159   
    353. D(H  13,C  15,C  12,H  11)      0.0568         0.023531   
    354. D(C  12,C  15,Fe  0,C   7)    168.0243         0.003159   
    355. D(C  12,C  15,Fe  0,C   6)     48.9004         0.003159   
    356. D(C  12,C  15,Fe  0,C   5)    127.0251         0.003159   
    357. D(C  17,C  15,C  12,C  16)     -0.1020         0.023531   
    358. D(C  12,C  15,Fe  0,C   2)     84.0547         0.003159   
    359. D(C  18,C  16,C  12,Fe  0)     59.6305         0.023542   
    360. D(H  14,C  16,C  12,C  15)   -177.4716         0.023542   
    361. D(H  14,C  16,C  12,H  11)      0.0731         0.023542   
    362. D(Fe  0,C  16,C  12,C  15)    -59.4833         0.023542   
    363. D(Fe  0,C  16,C  12,H  11)    118.0614         0.023542   
    364. D(C  18,C  16,Fe  0,C  17)    -37.6688         0.003115   
    365. D(C  18,C  16,Fe  0,C  12)   -119.1052         0.003115   
    366. D(C  18,C  16,Fe  0,C   8)     84.6681         0.003115   
    367. D(C  18,C  16,Fe  0,C   7)     50.7321         0.003115   
    368. D(C  18,C  16,Fe  0,C   6)    127.3063         0.003115   
    369. D(C  18,C  16,Fe  0,C   5)   -161.5196         0.003115   
    370. D(C  18,C  16,Fe  0,C   2)    167.7696         0.003115   
    371. D(H  14,C  16,Fe  0,C  18)   -120.4778         0.003115   
    372. D(H  14,C  16,Fe  0,C  17)   -158.1466         0.003115   
    373. D(H  14,C  16,Fe  0,C  15)    158.0648         0.003115   
    374. D(H  14,C  16,Fe  0,C  12)    120.4170         0.003115   
    375. D(H  14,C  16,Fe  0,C   8)    -35.8097         0.003115   
    376. D(H  14,C  16,Fe  0,C   7)    -69.7458         0.003115   
    377. D(H  14,C  16,Fe  0,C   6)      6.8285         0.003115   
    378. D(H  14,C  16,Fe  0,C   5)     78.0026         0.003115   
    379. D(H  14,C  16,Fe  0,C   2)     47.2918         0.003115   
    380. D(C  12,C  16,Fe  0,C  18)    119.1052         0.003115   
    381. D(C  18,C  16,Fe  0,C  15)    -81.4574         0.003115   
    382. D(C  12,C  16,Fe  0,C  17)     81.4365         0.003115   
    383. D(C  12,C  16,Fe  0,C  15)     37.6478         0.003115   
    384. D(C  12,C  16,Fe  0,C   8)   -156.2267         0.003115   
    385. D(H  14,C  16,C  12,Fe  0)   -117.9883         0.023542   
    386. D(C  12,C  16,Fe  0,C   7)    169.8373         0.003115   
    387. D(C  12,C  16,Fe  0,C   6)   -113.5885         0.003115   
    388. D(C  12,C  16,Fe  0,C   5)    -42.4144         0.003115   
    389. D(C  18,C  16,C  12,H  11)    177.6920         0.023542   
    390. D(C  12,C  16,Fe  0,C   2)    -73.1252         0.003115   
    391. D(C  18,C  16,C  12,C  15)      0.1473         0.023542   
    392. D(H  19,C  17,C  15,H  13)      0.1230         0.023436   
    393. D(H  19,C  17,C  15,C  12)    177.8265         0.023436   
    394. D(C  18,C  17,C  15,H  13)   -177.6856         0.023436   
    395. D(C  18,C  17,C  15,C  12)      0.0179         0.023436   
    396. D(C  18,C  17,C  15,Fe  0)    -59.7431         0.023436   
    397. D(Fe  0,C  17,C  15,C  12)     59.7609         0.023436   
    398. D(H  19,C  17,Fe  0,C  18)    120.5003         0.003154   
    399. D(H  19,C  17,Fe  0,C  16)    158.1277         0.003154   
    400. D(H  19,C  17,Fe  0,C  12)   -158.1735         0.003154   
    401. D(H  19,C  17,Fe  0,C   8)     48.1174         0.003154   
    402. D(H  19,C  17,Fe  0,C   7)      7.0756         0.003154   
    403. D(H  19,C  17,Fe  0,C   6)     81.8557         0.003154   
    404. D(H  19,C  17,Fe  0,C   5)    -35.9596         0.003154   
    405. D(H  19,C  17,Fe  0,C   2)    -71.1583         0.003154   
    406. D(C  18,C  17,Fe  0,C  16)     37.6274         0.003154   
    407. D(C  18,C  17,Fe  0,C  15)    119.0420         0.003154   
    408. D(C  18,C  17,Fe  0,C  12)     81.3262         0.003154   
    409. D(C  18,C  17,Fe  0,C   8)    -72.3828         0.003154   
    410. D(C  18,C  17,Fe  0,C   7)   -113.4247         0.003154   
    411. D(C  18,C  17,Fe  0,C   6)    -38.6446         0.003154   
    412. D(C  18,C  17,Fe  0,C   5)   -156.4599         0.003154   
    413. D(H  19,C  17,Fe  0,C  15)   -120.4577         0.003154   
    414. D(C  18,C  17,Fe  0,C   2)    168.3414         0.003154   
    415. D(C  15,C  17,Fe  0,C  18)   -119.0420         0.003154   
    416. D(C  15,C  17,Fe  0,C  16)    -81.4147         0.003154   
    417. D(Fe  0,C  17,C  15,H  13)   -117.9426         0.023436   
    418. D(C  15,C  17,Fe  0,C  12)    -37.7158         0.003154   
    419. D(C  15,C  17,Fe  0,C   8)    168.5751         0.003154   
    420. D(C  15,C  17,Fe  0,C   7)    127.5333         0.003154   
    421. D(H  19,C  17,C  15,Fe  0)    118.0656         0.023436   
    422. D(C  15,C  17,Fe  0,C   6)   -157.6866         0.003154   
    423. D(C  15,C  17,Fe  0,C   5)     84.4981         0.003154   
    424. D(C  15,C  17,Fe  0,C   2)     49.2994         0.003154   
    425. D(H  20,C  18,C  17,H  19)     -0.2870         0.023436   
    426. D(H  20,C  18,C  17,C  15)    177.5231         0.023436   
    427. D(H  20,C  18,C  17,Fe  0)    117.8968         0.023436   
    428. D(C  16,C  18,C  17,C  15)      0.0731         0.023436   
    429. D(C  16,C  18,C  17,Fe  0)    -59.5533         0.023436   
    430. D(Fe  0,C  18,C  17,H  19)   -118.1837         0.023436   
    431. D(Fe  0,C  18,C  17,C  15)     59.6264         0.023436   
    432. D(H  20,C  18,C  16,H  14)      0.0332         0.023512   
    433. D(H  20,C  18,C  16,C  12)   -177.5848         0.023512   
    434. D(H  20,C  18,C  16,Fe  0)   -117.9866         0.023512   
    435. D(C  17,C  18,C  16,C  12)     -0.1361         0.023512   
    436. D(C  17,C  18,C  16,Fe  0)     59.4621         0.023512   
    437. D(Fe  0,C  18,C  16,H  14)    118.0198         0.023512   
    438. D(H  20,C  18,Fe  0,C  17)   -120.3877         0.003107   
    439. D(H  20,C  18,Fe  0,C  16)    120.5214         0.003107   
    440. D(H  20,C  18,Fe  0,C  15)   -158.1015         0.003107   
    441. D(H  20,C  18,Fe  0,C  12)    158.1575         0.003107   
    442. D(H  20,C  18,Fe  0,C   8)      7.3201         0.003107   
    443. D(H  20,C  18,Fe  0,C   7)    -35.4662         0.003107   
    444. D(H  20,C  18,Fe  0,C   6)     48.0902         0.003107   
    445. D(H  20,C  18,Fe  0,C   5)    -69.8273         0.003107   
    446. D(H  20,C  18,Fe  0,C   2)     80.1215         0.003107   
    447. D(C  17,C  18,Fe  0,C  16)   -119.0908         0.003107   
    448. D(C  17,C  18,Fe  0,C  15)    -37.7138         0.003107   
    449. D(Fe  0,C  18,C  16,C  12)    -59.5982         0.023512   
    450. D(C  17,C  18,Fe  0,C  12)    -81.4548         0.003107   
    451. D(C  17,C  18,Fe  0,C   8)    127.7078         0.003107   
    452. D(C  17,C  18,Fe  0,C   7)     84.9216         0.003107   
    453. D(C  17,C  18,C  16,H  14)    177.4819         0.023512   
    454. D(C  17,C  18,Fe  0,C   6)    168.4779         0.003107   
    455. D(C  17,C  18,Fe  0,C   5)     50.5604         0.003107   
    456. D(C  17,C  18,Fe  0,C   2)   -159.4908         0.003107   
    457. D(C  16,C  18,Fe  0,C  17)    119.0908         0.003107   
    458. D(C  16,C  18,Fe  0,C  15)     81.3771         0.003107   
    459. D(C  16,C  18,Fe  0,C  12)     37.6360         0.003107   
    460. D(C  16,C  18,Fe  0,C   8)   -113.2014         0.003107   
    461. D(C  16,C  18,C  17,H  19)   -177.7370         0.023436   
    462. D(C  16,C  18,Fe  0,C   7)   -155.9876         0.003107   
    463. D(C  16,C  18,Fe  0,C   6)    -72.4313         0.003107   
    464. D(C  16,C  18,Fe  0,C   5)    169.6512         0.003107   
    465. D(C  16,C  18,Fe  0,C   2)    -40.3999         0.003107   
    -----------------------------------------------------------------

Number of atoms                         .... 21
Number of degrees of freedom            .... 465

         *************************************************************
         *                GEOMETRY OPTIMIZATION CYCLE   1            *
         *************************************************************
---------------------------------
CARTESIAN COORDINATES (ANGSTROEM)
---------------------------------
  Fe    -5.819000   -3.840000   -1.541000
  H     -5.319000   -1.444000   -2.947000
  C     -5.551000   -1.830000   -1.964000
  H     -7.792000   -1.867000   -1.953000
  H     -3.528000   -2.254000   -1.097000
  C     -6.859000   -2.056000   -1.439000
  C     -4.603000   -2.258000   -0.985000
  C     -6.721000   -2.624000   -0.135000
  C     -5.326000   -2.747000    0.146000
  H     -7.530000   -2.941000    0.509000
  H     -4.893000   -3.176000    1.039000
  H     -4.894000   -4.504000   -4.123000
  C     -5.325000   -4.933000   -3.229000
  H     -7.529000   -4.745000   -3.590000
  H     -3.524000   -5.421000   -1.988000
  C     -6.719000   -5.060000   -2.947000
  C     -4.600000   -5.419000   -2.099000
  C     -6.855000   -5.627000   -1.643000
  C     -5.545000   -5.850000   -1.119000
  H     -7.786000   -5.818000   -1.127000
  H     -5.311000   -6.235000   -0.136000

----------------------------
CARTESIAN COORDINATES (A.U.)
----------------------------
  NO LB      ZA    FRAG     MASS         X           Y           Z
   0 Fe   16.0000*   0    55.850  -10.996316   -7.256548   -2.912068
   1 H     1.0000    0     1.008  -10.051453   -2.728765   -5.569023
   2 C     6.0000    0    12.011  -10.489870   -3.458199   -3.711422
   3 H     1.0000    0     1.008  -14.724746   -3.528119   -3.690635
   4 H     1.0000    0     1.008   -6.666954   -4.259443   -2.073030
   5 C     6.0000    0    12.011  -12.961632   -3.885277   -2.719316
   6 C     6.0000    0    12.011   -8.698409   -4.267002   -1.861380
   7 C     6.0000    0    12.011  -12.700849   -4.958641   -0.255113
   8 C     6.0000    0    12.011  -10.064681   -5.191078    0.275900
   9 H     1.0000    0     1.008  -14.229638   -5.557685    0.961871
  10 H     1.0000    0     1.008   -9.246430   -6.001770    1.963425
  11 H     1.0000    0     1.008   -9.248320   -8.511327   -7.791341
  12 C     6.0000    0    12.011  -10.062792   -9.322019   -6.101926
  13 H     1.0000    0     1.008  -14.227748   -8.966751   -6.784117
  14 H     1.0000    0     1.008   -6.659395  -10.244205   -3.756776
  15 C     6.0000    0    12.011  -12.697070   -9.562014   -5.569023
  16 C     6.0000    0    12.011   -8.692740  -10.240426   -3.966535
  17 C     6.0000    0    12.011  -12.954073  -10.633489   -3.104820
  18 C     6.0000    0    12.011  -10.478531  -11.054898   -2.114604
  19 H     1.0000    0     1.008  -14.713408  -10.994427   -2.129721
  20 H     1.0000    0     1.008  -10.036335  -11.782442   -0.257003
* core charge reduced due to ECP

--------------------------------
INTERNAL COORDINATES (ANGSTROEM)
--------------------------------
 Fe     0   0   0     0.000000000000     0.00000000     0.00000000
 H      1   0   0     2.822702959930     0.00000000     0.00000000
 C      2   1   0     1.081253439301    37.45081218     0.00000000
 H      3   2   1     2.241332416220   102.99635388   271.45377768
 H      3   2   1     2.241426777747   103.03418374    88.61472919
 C      4   3   2     1.081853039927    31.01131453   179.75501112
 C      5   3   2     1.080826072965    31.02947157   179.93785589
 C      6   4   3     1.429015045407   125.89265987   182.58026069
 C      8   6   4     1.428325943194   107.94285637   177.88517999
 H      8   6   4     1.081529472553   125.98877524     0.09898731
 H      9   8   6     1.081193322214   126.00093137   182.39542120
 H      1   2   3     2.821922217213    71.69426201   189.83661456
 C     12   1   2     1.081220606537    37.45338368   189.19630827
 H     13  12   1     2.241267721625   103.03429012    88.48511606
 H     13  12   1     2.240943105034   102.94003767   271.37821272
 C     14  13  12     1.081098515400    31.01652973   180.04716421
 C     15  13  12     1.081712068898    31.05584499   180.06071635
 C     16  14  13     1.428426056889   125.96415809   177.29887540
 C     17  15  13     1.428000700280   125.96491491   182.79747307
 H     18  16  14     1.081433308161   125.99070246     0.12302390
 H     19  17  15     1.081327887368   126.02403934     0.03324860

---------------------------
INTERNAL COORDINATES (A.U.)
---------------------------
 Fe     0   0   0     0.000000000000     0.00000000     0.00000000
 H      1   0   0     5.334135551677     0.00000000     0.00000000
 C      2   1   0     2.043272881639    37.45081218     0.00000000
 H      3   2   1     4.235504441736   102.99635388   271.45377768
 H      3   2   1     4.235682759179   103.03418374    88.61472919
 C      4   3   2     2.044405962613    31.01131453   179.75501112
 C      5   3   2     2.042465276305    31.02947157   179.93785589
 C      6   4   3     2.700447077073   125.89265987   182.58026069
 C      8   6   4     2.699144862611   107.94285637   177.88517999
 H      8   6   4     2.043794508889   125.98877524     0.09898731
 H      9   8   6     2.043159276809   126.00093137   182.39542120
 H      1   2   3     5.332660161760    71.69426201   189.83661456
 C     12   1   2     2.043210836707    37.45338368   189.19630827
 H     13  12   1     4.235382186670   103.03429012    88.48511606
 H     13  12   1     4.234768750214   102.94003767   271.37821272
 C     14  13  12     2.042980117895    31.01652973   180.04716421
 C     15  13  12     2.044139565975    31.05584499   180.06071635
 C     16  14  13     2.699334050078   125.96415809   177.29887540
 C     17  15  13     2.698530242577   125.96491491   182.79747307
 H     18  16  14     2.043612784525   125.99070246     0.12302390
 H     19  17  15     2.043413568097   126.02403934     0.03324860

---------------------
BASIS SET INFORMATION
---------------------
There are 3 groups of distinct atoms

 Group   1 Type Fe  : 8s5p5d contracted to 3s3p2d pattern {341/311/41}
 Group   2 Type H   : 4s contracted to 2s pattern {31}
 Group   3 Type C   : 10s5p contracted to 3s2p pattern {721/41}

Atom   0Fe   basis set group =>   1
Atom   1H    basis set group =>   2
Atom   2C    basis set group =>   3
Atom   3H    basis set group =>   2
Atom   4H    basis set group =>   2
Atom   5C    basis set group =>   3
Atom   6C    basis set group =>   3
Atom   7C    basis set group =>   3
Atom   8C    basis set group =>   3
Atom   9H    basis set group =>   2
Atom  10H    basis set group =>   2
Atom  11H    basis set group =>   2
Atom  12C    basis set group =>   3
Atom  13H    basis set group =>   2
Atom  14H    basis set group =>   2
Atom  15C    basis set group =>   3
Atom  16C    basis set group =>   3
Atom  17C    basis set group =>   3
Atom  18C    basis set group =>   3
Atom  19H    basis set group =>   2
Atom  20H    basis set group =>   2
---------------------------------
AUXILIARY/J BASIS SET INFORMATION
---------------------------------
There are 3 groups of distinct atoms

 Group   1 Type Fe  : 19s5p5d3f3g contracted to 8s5p5d2f3g pattern {121111111/11111/11111/21/111}
 Group   2 Type H   : 5s2p1d contracted to 3s1p1d pattern {311/2/1}
 Group   3 Type C   : 12s5p4d2f1g contracted to 6s4p3d1f1g pattern {711111/2111/211/2/1}

Atom   0Fe   basis set group =>   1
Atom   1H    basis set group =>   2
Atom   2C    basis set group =>   3
Atom   3H    basis set group =>   2
Atom   4H    basis set group =>   2
Atom   5C    basis set group =>   3
Atom   6C    basis set group =>   3
Atom   7C    basis set group =>   3
Atom   8C    basis set group =>   3
Atom   9H    basis set group =>   2
Atom  10H    basis set group =>   2
Atom  11H    basis set group =>   2
Atom  12C    basis set group =>   3
Atom  13H    basis set group =>   2
Atom  14H    basis set group =>   2
Atom  15C    basis set group =>   3
Atom  16C    basis set group =>   3
Atom  17C    basis set group =>   3
Atom  18C    basis set group =>   3
Atom  19H    basis set group =>   2
Atom  20H    basis set group =>   2
-------------------------
ECP PARAMETER INFORMATION
-------------------------

 Group 1, Type Fe ECP HayWadt (replacing 10 core electrons, lmax=2)

Atom   0Fe   ECP group =>   1



           ************************************************************
           *        Program running with 16 parallel MPI-processes    *
           *              working on a common directory               *
           ************************************************************
------------------------------------------------------------------------------
                           ORCA GTO INTEGRAL CALCULATION
                           -- RI-GTO INTEGRALS CHOSEN --
------------------------------------------------------------------------------
------------------------------------------------------------------------------
                   ___                                                        
                  /   \      - P O W E R E D   B Y -                         
                 /     \                                                     
                 |  |  |   _    _      __       _____    __    __             
                 |  |  |  | |  | |    /  \     |  _  \  |  |  /  |          
                  \  \/   | |  | |   /    \    | | | |  |  | /  /          
                 / \  \   | |__| |  /  /\  \   | |_| |  |  |/  /          
                |  |  |   |  __  | /  /__\  \  |    /   |      \           
                |  |  |   | |  | | |   __   |  |    \   |  |\   \          
                \     /   | |  | | |  |  |  |  | |\  \  |  | \   \       
                 \___/    |_|  |_| |__|  |__|  |_| \__\ |__|  \__/        
                                                                              
                      - O R C A' S   B I G   F R I E N D -                    
                                      &                                       
                       - I N T E G R A L  F E E D E R -                       
                                                                              
 v1 FN, 2020, v2 2021                                                         
------------------------------------------------------------------------------


Reading SHARK input file FeCP2_plus2_small_opt.orca.SHARKINP.tmp ... ok
----------------------
SHARK INTEGRAL PACKAGE
----------------------

Number of atoms                             ...     21
Number of basis functions                   ...    132
Number of shells                            ...     78
Maximum angular momentum                    ...      2
Integral batch strategy                     ... SHARK/LIBINT Hybrid
RI-J (if used) integral strategy            ... SPLIT-RIJ (Revised 2003 algorithm where possible)
Printlevel                                  ...      1
Contraction scheme used                     ... SEGMENTED contraction
Coulomb Range Separation                    ... NOT USED
Exchange Range Separation                   ... NOT USED
Finite Nucleus Model                        ... NOT USED
Auxiliary Coulomb fitting basis             ... AVAILABLE
   # of basis functions in Aux-J            ...    689
   # of shells in Aux-J                     ...    223
   Maximum angular momentum in Aux-J        ...      4
Auxiliary J/K fitting basis                 ... NOT available
Auxiliary Correlation fitting basis         ... NOT available
Auxiliary 'external' fitting basis          ... NOT available
Integral threshold                          ...     2.500000e-11
Primitive cut-off                           ...     2.500000e-12
Primitive pair pre-selection threshold      ...     2.500000e-12

Calculating pre-screening integrals         ... done (  0.0 sec) Dimension = 78
Organizing shell pair data                  ... done (  0.2 sec)
Shell pair information
Total number of shell pairs                 ...      3081
Shell pairs after pre-screening             ...      3006
Total number of primitive shell pairs       ...     22064
Primitive shell pairs kept                  ...     13911
          la=0 lb=0:   1356 shell pairs
          la=1 lb=0:   1219 shell pairs
          la=1 lb=1:    276 shell pairs
          la=2 lb=0:    106 shell pairs
          la=2 lb=1:     46 shell pairs
          la=2 lb=2:      3 shell pairs

Calculating one electron integrals          ... done (  0.0 sec)
Calculating ECP integrals                   ... done (  0.3 sec)
Calculating RI/J V-Matrix + Cholesky decomp.... done (  0.3 sec)
Calculating Nuclear repulsion               ... done (  0.0 sec) ENN=    740.074688585368 Eh

SHARK setup successfully completed in   1.3 seconds

Maximum memory used throughout the entire GTOINT-calculation: 14.8 MB


           ************************************************************
           *        Program running with 16 parallel MPI-processes    *
           *              working on a common directory               *
           ************************************************************
-------------------------------------------------------------------------------
                                 ORCA SCF
-------------------------------------------------------------------------------

------------
SCF SETTINGS
------------
Hamiltonian:
 Density Functional     Method          .... DFT(GTOs)
 Exchange Functional    Exchange        .... B88
   X-Alpha parameter    XAlpha          ....  0.666667
   Becke's b parameter  XBeta           ....  0.004200
 Correlation Functional Correlation     .... LYP
 LDA part of GGA corr.  LDAOpt          .... VWN-5
 Gradients option       PostSCFGGA      .... off
 Hybrid DFT is turned on
   Fraction HF Exchange ScalHFX         ....  0.200000
   Scaling of DF-GGA-X  ScalDFX         ....  0.720000
   Scaling of DF-GGA-C  ScalDFC         ....  0.810000
   Scaling of DF-LDA-C  ScalLDAC        ....  1.000000
   Perturbative correction              ....  0.000000
   Density functional embedding theory  .... OFF
   NL short-range parameter             ....  4.800000
 RI-approximation to the Coulomb term is turned on
   Number of AuxJ basis functions       .... 689
   RIJ-COSX (HFX calculated with COS-X)).... on


General Settings:
 Integral files         IntName         .... FeCP2_plus2_small_opt.orca
 Hartree-Fock type      HFTyp           .... RHF
 Total Charge           Charge          ....    0
 Multiplicity           Mult            ....    1
 Number of Electrons    NEL             ....   86
 Basis Dimension        Dim             ....  132
 Nuclear Repulsion      ENuc            ....    740.0746885854 Eh

Convergence Acceleration:
 DIIS                   CNVDIIS         .... on
   Start iteration      DIISMaxIt       ....    12
   Startup error        DIISStart       ....  0.200000
   # of expansion vecs  DIISMaxEq       ....     5
   Bias factor          DIISBfac        ....   1.050
   Max. coefficient     DIISMaxC        ....  10.000
 Trust-Rad. Augm. Hess. CNVTRAH         .... auto
   Auto Start mean grad. ratio tolernc. ....  1.125000
   Auto Start start iteration           ....    20
   Auto Start num. interpolation iter.  ....    10
   Max. Number of Micro iterations      ....    16
   Max. Number of Macro iterations      .... Maxiter - #DIIS iter
   Number of Davidson start vectors     ....     2
   Converg. threshold I  (grad. norm)   ....   1.000e-05
   Converg. threshold II (energy diff.) ....   1.000e-08
   Grad. Scal. Fac. for Micro threshold ....   0.100
   Minimum threshold for Micro iter.    ....   0.010
   NR start threshold (gradient norm)   ....   0.001
   Initial trust radius                 ....   0.400
   Minimum AH scaling param. (alpha)    ....   1.000
   Maximum AH scaling param. (alpha)    .... 1000.000
   Orbital update algorithm             .... Taylor
   White noise on init. David. guess    .... on
   Maximum white noise                  ....   0.010
   Quad. conv. algorithm                .... NR
 SOSCF                  CNVSOSCF        .... off
 Level Shifting         CNVShift        .... on
   Level shift para.    LevelShift      ....    0.2500
   Turn off err/grad.   ShiftErr        ....    0.0010
 Zerner damping         CNVZerner       .... off
 Static damping         CNVDamp         .... on
   Fraction old density DampFac         ....    0.7000
   Max. Damping (<1)    DampMax         ....    0.9800
   Min. Damping (>=0)   DampMin         ....    0.0000
   Turn off err/grad.   DampErr         ....    0.1000
 Fernandez-Rico         CNVRico         .... off

SCF Procedure:
 Maximum # iterations   MaxIter         ....   125
 SCF integral mode      SCFMode         .... Direct
   Integral package                     .... SHARK and LIBINT hybrid scheme
 Reset frequency        DirectResetFreq ....    20
 Integral Threshold     Thresh          ....  2.500e-11 Eh
 Primitive CutOff       TCut            ....  2.500e-12 Eh

Convergence Tolerance:
 Convergence Check Mode ConvCheckMode   .... Total+1el-Energy
 Convergence forced     ConvForced      .... 0
 Energy Change          TolE            ....  1.000e-08 Eh
 1-El. energy change                    ....  1.000e-05 Eh
 DIIS Error             TolErr          ....  5.000e-07


Diagonalization of the overlap matrix:
Smallest eigenvalue                        ... 2.236e-03
Time for diagonalization                   ...    0.003 sec
Threshold for overlap eigenvalues          ... 1.000e-08
Number of eigenvalues below threshold      ... 0
Time for construction of square roots      ...    0.070 sec
Total time needed                          ...    0.074 sec

Time for model grid setup =    0.656 sec

------------------------------
INITIAL GUESS: MODEL POTENTIAL
------------------------------
Loading Hartree-Fock densities                     ... done
  calling /opt/orca/5.0.2/orca FeCP2_plus2_small_opt.orca_atom26.inp > FeCP2_plus2_small_opt.orca_atom26.out in order to generate an atomic fitting density for atom 0 (Fe with ECP) on-the-fly... 
    atom 0 (Fe), assumed electronic state with S=5: 1s2 2s2 2p6 3s2 3p6 4s2 3d6           ... done
Calculating cut-offs                               ... done
Initializing the effective Hamiltonian             ... done
Setting up the integral package (SHARK)            ... done
Starting the Coulomb interaction                   ... done (   0.1 sec)
Reading the grid                                   ... done
Mapping shells                                     ... done
Starting the XC term evaluation                    ... done (   0.0 sec)
  promolecular density results
     # of electrons  =     95.999042385
     EX              =   -109.055155425
     EC              =     -3.549418012
     EX+EC           =   -112.604573437
Transforming the Hamiltonian                       ... done (   0.0 sec)
Diagonalizing the Hamiltonian                      ... done (   0.0 sec)
Back transforming the eigenvectors                 ... done (   0.0 sec)
Now organizing SCF variables                       ... done
                      ------------------
                      INITIAL GUESS DONE (   4.1 sec)
                      ------------------
-------------------
DFT GRID GENERATION
-------------------

General Integration Accuracy     IntAcc      ... 4.388
Radial Grid Type                 RadialGrid  ... OptM3 with GC (2021)
Angular Grid (max. ang.)         AngularGrid ... 4 (Lebedev-302)
Angular grid pruning method      GridPruning ... 4 (adaptive)
Weight generation scheme         WeightScheme... Becke
Basis function cutoff            BFCut       ... 1.0000e-11
Integration weight cutoff        WCut        ... 1.0000e-14
Angular grids for H and He will be reduced by one unit
Partially contracted basis set               ... off
Rotationally invariant grid construction     ... off

Total number of grid points                  ...    99967
Total number of batches                      ...     1575
Average number of points per batch           ...       63
Average number of grid points per atom       ...     4760
Time for grid setup =    0.821 sec

--------------------
COSX GRID GENERATION
--------------------

GRIDX 1
-------
General Integration Accuracy     IntAcc      ... 3.816
Radial Grid Type                 RadialGrid  ... OptM3 with GC (2021)
Angular Grid (max. ang.)         AngularGrid ... 1 (Lebedev-50)
Angular grid pruning method      GridPruning ... 4 (adaptive)
Weight generation scheme         WeightScheme... Becke
Basis function cutoff            BFCut       ... 1.0000e-11
Integration weight cutoff        WCut        ... 1.0000e-14
Angular grids for H and He will be reduced by one unit
Partially contracted basis set               ... on
Rotationally invariant grid construction     ... off

Total number of grid points                  ...    12728
Total number of batches                      ...      206
Average number of points per batch           ...       61
Average number of grid points per atom       ...      606
UseSFitting                                  ... on

GRIDX 2
-------
General Integration Accuracy     IntAcc      ... 4.020
Radial Grid Type                 RadialGrid  ... OptM3 with GC (2021)
Angular Grid (max. ang.)         AngularGrid ... 2 (Lebedev-110)
Angular grid pruning method      GridPruning ... 4 (adaptive)
Weight generation scheme         WeightScheme... Becke
Basis function cutoff            BFCut       ... 1.0000e-11
Integration weight cutoff        WCut        ... 1.0000e-14
Angular grids for H and He will be reduced by one unit
Partially contracted basis set               ... on
Rotationally invariant grid construction     ... off

Total number of grid points                  ...    27422
Total number of batches                      ...      440
Average number of points per batch           ...       62
Average number of grid points per atom       ...     1306
UseSFitting                                  ... on

GRIDX 3
-------
General Integration Accuracy     IntAcc      ... 4.338
Radial Grid Type                 RadialGrid  ... OptM3 with GC (2021)
Angular Grid (max. ang.)         AngularGrid ... 3 (Lebedev-194)
Angular grid pruning method      GridPruning ... 4 (adaptive)
Weight generation scheme         WeightScheme... Becke
Basis function cutoff            BFCut       ... 1.0000e-11
Integration weight cutoff        WCut        ... 1.0000e-14
Angular grids for H and He will be reduced by one unit
Partially contracted basis set               ... on
Rotationally invariant grid construction     ... off

Total number of grid points                  ...    59835
Total number of batches                      ...      942
Average number of points per batch           ...       63
Average number of grid points per atom       ...     2849
UseSFitting                                  ... on

Time for X-Grid setup             =    2.220 sec

--------------
SCF ITERATIONS
--------------
ITER       Energy         Delta-E        Max-DP      RMS-DP      [F,P]     Damp
               ***  Starting incremental Fock matrix formation  ***
  0   -509.5654025787   0.000000000000 0.33423008  0.00758431  0.3980229 0.7000
  1   -509.8148995135  -0.249496934833 0.05158400  0.00262312  0.1277103 0.7000
                               ***Turning on DIIS***
  2   -509.8958912770  -0.080991763478 0.08184934  0.00236727  0.1320556 0.7000
  3   -509.9659880980  -0.070096821016 0.10635955  0.00281983  0.0283664 0.0000
  4   -510.0944557944  -0.128467696460 0.01388593  0.00045433  0.1193202 0.7000
  5   -510.1039323938  -0.009476599391 0.05065307  0.00165639  0.0926967 0.0000
  6   -510.1206451082  -0.016712714320 0.00608138  0.00025670  0.0038169 0.0000
  7   -510.1209126874  -0.000267579201 0.00383809  0.00015253  0.0025788 0.0000
  8   -510.1210041612  -0.000091473837 0.00237066  0.00008059  0.0015027 0.0000
  9   -510.1210327463  -0.000028585109 0.00220227  0.00008309  0.0004324 0.0000
               *** Restarting incremental Fock matrix formation ***
                                   *** Resetting DIIS ***
 10   -510.1209952801   0.000037466239 0.00031542  0.00002648  0.0000719 0.0000
 11   -510.1209954294  -0.000000149353 0.00021358  0.00000760  0.0000926 0.0000
 12   -510.1209953886   0.000000040832 0.00017445  0.00000452  0.0003123 0.0000
 13   -510.1209955195  -0.000000130951 0.00004020  0.00000169  0.0000759 0.0000
 14   -510.1209955380  -0.000000018431 0.00002016  0.00000083  0.0000145 0.0000
 15   -510.1209955328   0.000000005134 0.00000745  0.00000031  0.0000048 0.0000
 16   -510.1209955241   0.000000008712 0.00000580  0.00000014  0.0000024 0.0000
                 **** Energy Check signals convergence ****

               *****************************************************
               *                     SUCCESS                       *
               *           SCF CONVERGED AFTER  17 CYCLES          *
               *****************************************************

Old exchange energy                            =    -13.510642941 Eh
New exchange energy                            =    -13.510617725 Eh
Exchange energy change after final integration =      0.000025216 Eh
Total energy after final integration           =   -510.120970315 Eh
Final COS-X integration done in                =     0.745 sec

----------------
TOTAL SCF ENERGY
----------------

Total Energy       :         -510.12097032 Eh          -13881.09730 eV

Components:
Nuclear Repulsion  :          740.07468859 Eh           20138.45610 eV
Electronic Energy  :        -1250.19565890 Eh          -34019.55340 eV
One Electron Energy:        -2208.25318065 Eh          -60089.62394 eV
Two Electron Energy:          958.05752175 Eh           26070.07054 eV
Max COSX asymmetry :            0.00000513 Eh               0.00014 eV

Virial components:
Potential Energy   :         -965.57891182 Eh          -26274.73797 eV
Kinetic Energy     :          455.45794150 Eh           12393.64067 eV
Virial Ratio       :            2.12001773


DFT components:
N(Alpha)           :       42.999943967115 electrons
N(Beta)            :       42.999943967115 electrons
N(Total)           :       85.999887934229 electrons
E(X)               :      -53.956792831897 Eh       
E(C)               :       -3.483429030966 Eh       
E(XC)              :      -57.440221862864 Eh       
DFET-embed. en.    :        0.000000000000 Eh       

---------------
SCF CONVERGENCE
---------------

  Last Energy change         ...   -7.3542e-09  Tolerance :   1.0000e-08
  Last MAX-Density change    ...    0.0000e+00  Tolerance :   1.0000e-07
  Last RMS-Density change    ...    0.0000e+00  Tolerance :   5.0000e-09
  Last DIIS Error            ...    1.4194e-06  Tolerance :   5.0000e-07

             **** THE GBW FILE WAS UPDATED (FeCP2_plus2_small_opt.orca.gbw) ****
             **** DENSITY FeCP2_plus2_small_opt.orca.scfp WAS UPDATED ****
             **** ENERGY FILE WAS UPDATED (FeCP2_plus2_small_opt.orca.en.tmp) ****
             **** THE GBW FILE WAS UPDATED (FeCP2_plus2_small_opt.orca.gbw) ****
             **** DENSITY FeCP2_plus2_small_opt.orca.scfp WAS UPDATED ****
----------------
ORBITAL ENERGIES
----------------

  NO   OCC          E(Eh)            E(eV) 
   0   2.0000     -10.195508      -277.4339 
   1   2.0000     -10.195480      -277.4331 
   2   2.0000     -10.195148      -277.4241 
   3   2.0000     -10.195113      -277.4231 
   4   2.0000     -10.195049      -277.4214 
   5   2.0000     -10.195026      -277.4208 
   6   2.0000     -10.194709      -277.4121 
   7   2.0000     -10.194679      -277.4113 
   8   2.0000     -10.194437      -277.4047 
   9   2.0000     -10.194414      -277.4041 
  10   2.0000      -3.447259       -93.8047 
  11   2.0000      -2.259479       -61.4836 
  12   2.0000      -2.208477       -60.0957 
  13   2.0000      -2.208446       -60.0949 
  14   2.0000      -0.902571       -24.5602 
  15   2.0000      -0.885917       -24.1070 
  16   2.0000      -0.715835       -19.4789 
  17   2.0000      -0.715644       -19.4737 
  18   2.0000      -0.714185       -19.4340 
  19   2.0000      -0.713991       -19.4287 
  20   2.0000      -0.545520       -14.8444 
  21   2.0000      -0.545379       -14.8405 
  22   2.0000      -0.537630       -14.6297 
  23   2.0000      -0.537336       -14.6216 
  24   2.0000      -0.537239       -14.6190 
  25   2.0000      -0.524423       -14.2703 
  26   2.0000      -0.411590       -11.1999 
  27   2.0000      -0.411503       -11.1976 
  28   2.0000      -0.411339       -11.1931 
  29   2.0000      -0.403782       -10.9875 
  30   2.0000      -0.403511       -10.9801 
  31   2.0000      -0.380199       -10.3457 
  32   2.0000      -0.380040       -10.3414 
  33   2.0000      -0.376351       -10.2410 
  34   2.0000      -0.376171       -10.2361 
  35   2.0000      -0.359000        -9.7689 
  36   2.0000      -0.270178        -7.3519 
  37   2.0000      -0.270012        -7.3474 
  38   2.0000      -0.248251        -6.7553 
  39   2.0000      -0.248218        -6.7544 
  40   2.0000      -0.242523        -6.5994 
  41   2.0000      -0.202647        -5.5143 
  42   2.0000      -0.202400        -5.5076 
  43   0.0000      -0.008591        -0.2338 
  44   0.0000      -0.008334        -0.2268 
  45   0.0000       0.015033         0.4091 
  46   0.0000       0.015171         0.4128 
  47   0.0000       0.027192         0.7399 
  48   0.0000       0.052521         1.4292 
  49   0.0000       0.061512         1.6738 
  50   0.0000       0.061914         1.6848 
  51   0.0000       0.064971         1.7679 
  52   0.0000       0.065159         1.7731 
  53   0.0000       0.138345         3.7646 
  54   0.0000       0.138411         3.7664 
  55   0.0000       0.174645         4.7523 
  56   0.0000       0.174667         4.7529 
  57   0.0000       0.184584         5.0228 
  58   0.0000       0.186371         5.0714 
  59   0.0000       0.186398         5.0722 
  60   0.0000       0.192732         5.2445 
  61   0.0000       0.201130         5.4730 
  62   0.0000       0.201263         5.4766 
  63   0.0000       0.237658         6.4670 
  64   0.0000       0.237743         6.4693 
  65   0.0000       0.245702         6.6859 
  66   0.0000       0.245837         6.6896 
  67   0.0000       0.268878         7.3166 
  68   0.0000       0.278419         7.5762 
  69   0.0000       0.278540         7.5795 
  70   0.0000       0.280518         7.6333 
  71   0.0000       0.280613         7.6359 
  72   0.0000       0.318136         8.6569 
  73   0.0000       0.318338         8.6624 
  74   0.0000       0.324950         8.8424 
  75   0.0000       0.325035         8.8447 
  76   0.0000       0.347530         9.4568 
  77   0.0000       0.369853        10.0642 
  78   0.0000       0.375884        10.2283 
  79   0.0000       0.375919        10.2293 
  80   0.0000       0.383997        10.4491 
  81   0.0000       0.384217        10.4551 
  82   0.0000       0.387789        10.5523 
  83   0.0000       0.395615        10.7652 
  84   0.0000       0.395862        10.7719 
  85   0.0000       0.402092        10.9415 
  86   0.0000       0.414748        11.2859 
  87   0.0000       0.415616        11.3095 
  88   0.0000       0.467155        12.7119 
  89   0.0000       0.581822        15.8322 
  90   0.0000       0.582133        15.8407 
  91   0.0000       0.605673        16.4812 
  92   0.0000       0.605932        16.4883 
  93   0.0000       0.612339        16.6626 
  94   0.0000       0.612556        16.6685 
  95   0.0000       0.631715        17.1898 
  96   0.0000       0.631915        17.1953 
  97   0.0000       0.671388        18.2694 
  98   0.0000       0.671549        18.2738 
  99   0.0000       0.674001        18.3405 
 100   0.0000       0.675037        18.3687 
 101   0.0000       0.682012        18.5585 
 102   0.0000       0.693585        18.8734 
 103   0.0000       0.725156        19.7325 
 104   0.0000       0.726152        19.7596 
 105   0.0000       0.768779        20.9195 
 106   0.0000       0.789752        21.4902 
 107   0.0000       0.867282        23.5999 
 108   0.0000       0.869129        23.6502 
 109   0.0000       1.057864        28.7859 
 110   0.0000       1.099204        29.9109 
 111   0.0000       1.100865        29.9560 
 112   0.0000       1.120918        30.5017 
 113   0.0000       1.121526        30.5183 
 114   0.0000       1.167505        31.7694 
 115   0.0000       1.168304        31.7912 
 116   0.0000       1.202961        32.7342 
 117   0.0000       1.222528        33.2667 
 118   0.0000       1.222585        33.2682 
 119   0.0000       1.235554        33.6211 
 120   0.0000       1.258112        34.2350 
 121   0.0000       1.258271        34.2393 
 122   0.0000       1.284597        34.9557 
 123   0.0000       1.284992        34.9664 
 124   0.0000       1.313006        35.7287 
 125   0.0000       1.313794        35.7501 
 126   0.0000       1.363628        37.1062 
 127   0.0000       1.456397        39.6306 
 128   0.0000       1.457982        39.6737 
 129   0.0000       1.551116        42.2080 
 130   0.0000       1.551773        42.2259 
 131   0.0000       7.003725       190.5810 

                    ********************************
                    * MULLIKEN POPULATION ANALYSIS *
                    ********************************

-----------------------
MULLIKEN ATOMIC CHARGES
-----------------------
   0 Fe:   -0.155748
   1 H :    0.250227
   2 C :   -0.234137
   3 H :    0.249497
   4 H :    0.250425
   5 C :   -0.234174
   6 C :   -0.234153
   7 C :   -0.235377
   8 C :   -0.234365
   9 H :    0.249736
  10 H :    0.250390
  11 H :    0.250459
  12 C :   -0.234499
  13 H :    0.249995
  14 H :    0.250017
  15 C :   -0.235314
  16 C :   -0.233826
  17 C :   -0.234760
  18 C :   -0.234251
  19 H :    0.249697
  20 H :    0.250160
Sum of atomic charges:   -0.0000000

--------------------------------
MULLIKEN REDUCED ORBITAL CHARGES
--------------------------------
  0 Fes       :     2.433258  s :     2.433258
      pz      :     2.192258  p :     6.471561
      px      :     2.224727
      py      :     2.054576
      dz2     :     1.428064  d :     7.250929
      dxz     :     1.642955
      dyz     :     1.421400
      dx2y2   :     1.765689
      dxy     :     0.992821
  1 H s       :     0.749773  s :     0.749773
  2 C s       :     3.253554  s :     3.253554
      pz      :     1.069512  p :     2.980584
      px      :     0.875853
      py      :     1.035219
  3 H s       :     0.750503  s :     0.750503
  4 H s       :     0.749575  s :     0.749575
  5 C s       :     3.253575  s :     3.253575
      pz      :     0.928947  p :     2.980599
      px      :     1.050534
      py      :     1.001118
  6 C s       :     3.253899  s :     3.253899
      pz      :     0.888279  p :     2.980254
      px      :     1.109789
      py      :     0.982187
  7 C s       :     3.253788  s :     3.253788
      pz      :     0.992622  p :     2.981589
      px      :     1.001204
      py      :     0.987763
  8 C s       :     3.253683  s :     3.253683
[...]
N(Total)           :       85.999970441718 electrons
E(X)               :      -53.860401585379 Eh       
E(C)               :       -3.473348087544 Eh       
E(XC)              :      -57.333749672923 Eh       
DFET-embed. en.    :        0.000000000000 Eh       

---------------
SCF CONVERGENCE
---------------

  Last Energy change         ...    6.5745e-09  Tolerance :   1.0000e-08
  Last MAX-Density change    ...    0.0000e+00  Tolerance :   1.0000e-07
  Last RMS-Density change    ...    0.0000e+00  Tolerance :   5.0000e-09
  Last DIIS Error            ...    9.7173e-07  Tolerance :   5.0000e-07

             **** THE GBW FILE WAS UPDATED (FeCP2_plus2_small_opt.orca.gbw) ****
             **** DENSITY FeCP2_plus2_small_opt.orca.scfp WAS UPDATED ****
             **** ENERGY FILE WAS UPDATED (FeCP2_plus2_small_opt.orca.en.tmp) ****
             **** THE GBW FILE WAS UPDATED (FeCP2_plus2_small_opt.orca.gbw) ****
             **** DENSITY FeCP2_plus2_small_opt.orca.scfp WAS UPDATED ****
----------------
ORBITAL ENERGIES
----------------

  NO   OCC          E(Eh)            E(eV) 
   0   2.0000     -10.198004      -277.5018 
   1   2.0000     -10.197988      -277.5013 
   2   2.0000     -10.197764      -277.4953 
   3   2.0000     -10.197757      -277.4951 
   4   2.0000     -10.197712      -277.4938 
   5   2.0000     -10.197704      -277.4936 
   6   2.0000     -10.197298      -277.4826 
   7   2.0000     -10.197296      -277.4825 
   8   2.0000     -10.197283      -277.4822 
   9   2.0000     -10.197281      -277.4821 
  10   2.0000      -3.445144       -93.7471 
  11   2.0000      -2.256938       -61.4144 
  12   2.0000      -2.205610       -60.0177 
  13   2.0000      -2.205607       -60.0176 
  14   2.0000      -0.888388       -24.1743 
  15   2.0000      -0.874787       -23.8042 
  16   2.0000      -0.709546       -19.3077 
  17   2.0000      -0.709532       -19.3073 
  18   2.0000      -0.708385       -19.2761 
  19   2.0000      -0.708367       -19.2757 
  20   2.0000      -0.543207       -14.7814 
  21   2.0000      -0.543155       -14.7800 
  22   2.0000      -0.536998       -14.6124 
  23   2.0000      -0.536986       -14.6121 
  24   2.0000      -0.532247       -14.4832 
  25   2.0000      -0.521641       -14.1946 
  26   2.0000      -0.408333       -11.1113 
  27   2.0000      -0.408300       -11.1104 
  28   2.0000      -0.404503       -11.0071 
  29   2.0000      -0.401626       -10.9288 
  30   2.0000      -0.401613       -10.9284 
  31   2.0000      -0.377696       -10.2776 
  32   2.0000      -0.377672       -10.2770 
  33   2.0000      -0.374584       -10.1930 
  34   2.0000      -0.374557       -10.1922 
  35   2.0000      -0.356092        -9.6898 
  36   2.0000      -0.264055        -7.1853 
  37   2.0000      -0.263857        -7.1799 
  38   2.0000      -0.244002        -6.6396 
  39   2.0000      -0.243978        -6.6390 
  40   2.0000      -0.242128        -6.5886 
  41   2.0000      -0.198624        -5.4048 
  42   2.0000      -0.198612        -5.4045 
  43   0.0000      -0.016626        -0.4524 
  44   0.0000      -0.016181        -0.4403 
  45   0.0000       0.015783         0.4295 
  46   0.0000       0.015906         0.4328 
  47   0.0000       0.026774         0.7286 
  48   0.0000       0.054677         1.4878 
  49   0.0000       0.056396         1.5346 
  50   0.0000       0.056442         1.5359 
  51   0.0000       0.059294         1.6135 
  52   0.0000       0.059326         1.6143 
  53   0.0000       0.137259         3.7350 
  54   0.0000       0.137269         3.7353 
  55   0.0000       0.170180         4.6308 
  56   0.0000       0.170196         4.6313 
  57   0.0000       0.183208         4.9854 
  58   0.0000       0.183225         4.9858 
  59   0.0000       0.185895         5.0585 
  60   0.0000       0.186597         5.0776 
  61   0.0000       0.195983         5.3330 
  62   0.0000       0.196059         5.3350 
  63   0.0000       0.231849         6.3089 
  64   0.0000       0.231963         6.3120 
  65   0.0000       0.242274         6.5926 
  66   0.0000       0.242310         6.5936 
  67   0.0000       0.267040         7.2665 
  68   0.0000       0.279730         7.6118 
  69   0.0000       0.279867         7.6156 
  70   0.0000       0.281150         7.6505 
  71   0.0000       0.281223         7.6525 
  72   0.0000       0.316973         8.6253 
  73   0.0000       0.317138         8.6298 
  74   0.0000       0.323716         8.8088 
  75   0.0000       0.323756         8.8098 
  76   0.0000       0.333977         9.0880 
  77   0.0000       0.359919         9.7939 
  78   0.0000       0.372981        10.1493 
  79   0.0000       0.373441        10.1618 
  80   0.0000       0.373991        10.1768 
  81   0.0000       0.374003        10.1771 
  82   0.0000       0.380702        10.3594 
  83   0.0000       0.394287        10.7291 
  84   0.0000       0.395527        10.7628 
  85   0.0000       0.395681        10.7670 
  86   0.0000       0.409555        11.1445 
  87   0.0000       0.409773        11.1505 
  88   0.0000       0.468363        12.7448 
  89   0.0000       0.568465        15.4687 
  90   0.0000       0.568562        15.4714 
  91   0.0000       0.592574        16.1248 
  92   0.0000       0.592733        16.1291 
  93   0.0000       0.593018        16.1369 
  94   0.0000       0.593100        16.1391 
  95   0.0000       0.622265        16.9327 
  96   0.0000       0.622310        16.9339 
  97   0.0000       0.652639        17.7592 
  98   0.0000       0.653054        17.7705 
  99   0.0000       0.667615        18.1667 
 100   0.0000       0.681076        18.5330 
 101   0.0000       0.681292        18.5389 
 102   0.0000       0.681323        18.5397 
 103   0.0000       0.724958        19.7271 
 104   0.0000       0.725054        19.7297 
 105   0.0000       0.740492        20.1498 
 106   0.0000       0.773936        21.0599 
 107   0.0000       0.846225        23.0269 
 108   0.0000       0.846526        23.0351 
 109   0.0000       1.041088        28.3295 
 110   0.0000       1.086858        29.5749 
 111   0.0000       1.087015        29.5792 
 112   0.0000       1.105834        30.0913 
 113   0.0000       1.106136        30.0995 
 114   0.0000       1.150059        31.2947 
 115   0.0000       1.150942        31.3187 
 116   0.0000       1.210136        32.9295 
 117   0.0000       1.215081        33.0640 
 118   0.0000       1.215153        33.0660 
 119   0.0000       1.218863        33.1669 
 120   0.0000       1.241958        33.7954 
 121   0.0000       1.241989        33.7962 
 122   0.0000       1.270127        34.5619 
 123   0.0000       1.270216        34.5643 
 124   0.0000       1.345560        36.6145 
 125   0.0000       1.345752        36.6198 
 126   0.0000       1.367386        37.2085 
 127   0.0000       1.467382        39.9295 
 128   0.0000       1.468679        39.9648 
 129   0.0000       1.536732        41.8166 
 130   0.0000       1.537514        41.8379 
 131   0.0000       5.867858       159.6725 

                    ********************************
                    * MULLIKEN POPULATION ANALYSIS *
                    ********************************

-----------------------
MULLIKEN ATOMIC CHARGES
-----------------------
   0 Fe:   -0.116634
   1 H :    0.247501
   2 C :   -0.235774
   3 H :    0.247175
   4 H :    0.247548
   5 C :   -0.235321
   6 C :   -0.235970
   7 C :   -0.235891
   8 C :   -0.235829
   9 H :    0.247221
  10 H :    0.247653
  11 H :    0.247662
  12 C :   -0.235835
  13 H :    0.247224
  14 H :    0.247548
  15 C :   -0.235895
  16 C :   -0.235978
  17 C :   -0.235320
  18 C :   -0.235762
  19 H :    0.247172
  20 H :    0.247503
Sum of atomic charges:   -0.0000000

--------------------------------
MULLIKEN REDUCED ORBITAL CHARGES
--------------------------------
  0 Fes       :     2.418395  s :     2.418395
      pz      :     2.190251  p :     6.489784
      px      :     2.214886
      py      :     2.084648
      dz2     :     1.420276  d :     7.208454
      dxz     :     1.650083
      dyz     :     1.407658
      dx2y2   :     1.765974
      dxy     :     0.964463
  1 H s       :     0.752499  s :     0.752499
  2 C s       :     3.260181  s :     3.260181
      pz      :     1.060171  p :     2.975593
      px      :     0.876253
      py      :     1.039170
  3 H s       :     0.752825  s :     0.752825
  4 H s       :     0.752452  s :     0.752452
  5 C s       :     3.260283  s :     3.260283
      pz      :     0.929514  p :     2.975038
      px      :     1.041848
      py      :     1.003676
  6 C s       :     3.260203  s :     3.260203
      pz      :     0.886966  p :     2.975767
      px      :     1.103679
      py      :     0.985122
  7 C s       :     3.260137  s :     3.260137
      pz      :     0.987981  p :     2.975754
      px      :     1.001375
      py      :     0.986399
  8 C s       :     3.260115  s :     3.260115
      pz      :     1.076527  p :     2.975714
      px      :     0.901825
      py      :     0.997362
  9 H s       :     0.752779  s :     0.752779
 10 H s       :     0.752347  s :     0.752347
 11 H s       :     0.752338  s :     0.752338
 12 C s       :     3.260106  s :     3.260106
      pz      :     1.076703  p :     2.975729
      px      :     0.901522
      py      :     0.997504
 13 H s       :     0.752776  s :     0.752776
 14 H s       :     0.752452  s :     0.752452
 15 C s       :     3.260122  s :     3.260122
      pz      :     0.987750  p :     2.975773
      px      :     1.001768
      py      :     0.986255
 16 C s       :     3.260198  s :     3.260198
      pz      :     0.886947  p :     2.975780
      px      :     1.103876
      py      :     0.984957
 17 C s       :     3.260291  s :     3.260291
      pz      :     0.929690  p :     2.975029
      px      :     1.041319
      py      :     1.004019
 18 C s       :     3.260192  s :     3.260192
      pz      :     1.060075  p :     2.975569
      px      :     0.876480
      py      :     1.039014
 19 H s       :     0.752828  s :     0.752828
 20 H s       :     0.752497  s :     0.752497


                     *******************************
                     * LOEWDIN POPULATION ANALYSIS *
                     *******************************

----------------------
LOEWDIN ATOMIC CHARGES
----------------------
   0 Fe:   -0.533623
   1 H :    0.164105
   2 C :   -0.110908
   3 H :    0.164089
   4 H :    0.164142
   5 C :   -0.110602
   6 C :   -0.110548
   7 C :   -0.110951
   8 C :   -0.110732
   9 H :    0.164080
  10 H :    0.164134
  11 H :    0.164137
  12 C :   -0.110730
  13 H :    0.164081
  14 H :    0.164141
  15 C :   -0.110949
  16 C :   -0.110548
  17 C :   -0.110604
  18 C :   -0.110907
  19 H :    0.164088
  20 H :    0.164105

-------------------------------
LOEWDIN REDUCED ORBITAL CHARGES
-------------------------------
  0 Fes       :     2.188649  s :     2.188649
      pz      :     2.252556  p :     6.783886
      px      :     2.244912
      py      :     2.286418
      dz2     :     1.488355  d :     7.561087
      dxz     :     1.695648
      dyz     :     1.487807
      dx2y2   :     1.819135
      dxy     :     1.070142
  1 H s       :     0.835895  s :     0.835895
  2 C s       :     2.912288  s :     2.912288
      pz      :     1.096689  p :     3.198621
      px      :     1.056087
      py      :     1.045845
  3 H s       :     0.835911  s :     0.835911
  4 H s       :     0.835858  s :     0.835858
  5 C s       :     2.912394  s :     2.912394
      pz      :     1.064762  p :     3.198209
      px      :     1.092045
      py      :     1.041402
  6 C s       :     2.912260  s :     2.912260
      pz      :     1.051714  p :     3.198288
      px      :     1.105817
      py      :     1.040757
  7 C s       :     2.912349  s :     2.912349
      pz      :     1.067674  p :     3.198602
      px      :     1.083712
      py      :     1.047216
  8 C s       :     2.912352  s :     2.912352
      pz      :     1.085574  p :     3.198380
      px      :     1.061299
      py      :     1.051507
  9 H s       :     0.835920  s :     0.835920
 10 H s       :     0.835866  s :     0.835866
 11 H s       :     0.835863  s :     0.835863
 12 C s       :     2.912348  s :     2.912348
      pz      :     1.085609  p :     3.198383
      px      :     1.061211
      py      :     1.051562
 13 H s       :     0.835919  s :     0.835919
 14 H s       :     0.835859  s :     0.835859
 15 C s       :     2.912338  s :     2.912338
      pz      :     1.067631  p :     3.198611
      px      :     1.083830
      py      :     1.047150
 16 C s       :     2.912255  s :     2.912255
      pz      :     1.051706  p :     3.198293
      px      :     1.105816
      py      :     1.040771
 17 C s       :     2.912396  s :     2.912396
      pz      :     1.064817  p :     3.198208
      px      :     1.091956
      py      :     1.041435
 18 C s       :     2.912300  s :     2.912300
      pz      :     1.096666  p :     3.198607
      px      :     1.056129
      py      :     1.045811
 19 H s       :     0.835912  s :     0.835912
 20 H s       :     0.835895  s :     0.835895


                      *****************************
                      * MAYER POPULATION ANALYSIS *
                      *****************************

  NA   - Mulliken gross atomic population
  ZA   - Total nuclear charge
  QA   - Mulliken gross atomic charge
  VA   - Mayer's total valence
  BVA  - Mayer's bonded valence
  FA   - Mayer's free valence

  ATOM       NA         ZA         QA         VA         BVA        FA
  0 Fe    16.1166    16.0000    -0.1166     4.3164     4.3164    -0.0000
  1 H      0.7525     1.0000     0.2475     0.8976     0.8976    -0.0000
  2 C      6.2358     6.0000    -0.2358     3.8177     3.8177    -0.0000
  3 H      0.7528     1.0000     0.2472     0.8978     0.8978     0.0000
  4 H      0.7525     1.0000     0.2475     0.8975     0.8975    -0.0000
  5 C      6.2353     6.0000    -0.2353     3.8179     3.8179     0.0000
  6 C      6.2360     6.0000    -0.2360     3.8184     3.8184    -0.0000
  7 C      6.2359     6.0000    -0.2359     3.8178     3.8178    -0.0000
  8 C      6.2358     6.0000    -0.2358     3.8181     3.8181    -0.0000
  9 H      0.7528     1.0000     0.2472     0.8978     0.8978    -0.0000
 10 H      0.7523     1.0000     0.2477     0.8974     0.8974     0.0000
 11 H      0.7523     1.0000     0.2477     0.8974     0.8974     0.0000
 12 C      6.2358     6.0000    -0.2358     3.8181     3.8181    -0.0000
 13 H      0.7528     1.0000     0.2472     0.8978     0.8978     0.0000
 14 H      0.7525     1.0000     0.2475     0.8975     0.8975     0.0000
 15 C      6.2359     6.0000    -0.2359     3.8178     3.8178    -0.0000
 16 C      6.2360     6.0000    -0.2360     3.8184     3.8184     0.0000
 17 C      6.2353     6.0000    -0.2353     3.8179     3.8179     0.0000
 18 C      6.2358     6.0000    -0.2358     3.8176     3.8176     0.0000
 19 H      0.7528     1.0000     0.2472     0.8978     0.8978     0.0000
 20 H      0.7525     1.0000     0.2475     0.8976     0.8976    -0.0000

  Mayer bond orders larger than 0.100000
B(  0-Fe,  2-C ) :   0.4230 B(  0-Fe,  5-C ) :   0.4225 B(  0-Fe,  6-C ) :   0.4237 
B(  0-Fe,  7-C ) :   0.4230 B(  0-Fe,  8-C ) :   0.4230 B(  0-Fe, 12-C ) :   0.4230 
B(  0-Fe, 15-C ) :   0.4230 B(  0-Fe, 16-C ) :   0.4238 B(  0-Fe, 17-C ) :   0.4225 
B(  0-Fe, 18-C ) :   0.4230 B(  1-H ,  2-C ) :   0.8768 B(  2-C ,  5-C ) :   1.2435 
B(  2-C ,  6-C ) :   1.2423 B(  3-H ,  5-C ) :   0.8770 B(  4-H ,  6-C ) :   0.8766 
B(  5-C ,  7-C ) :   1.2425 B(  6-C ,  8-C ) :   1.2432 B(  7-C ,  8-C ) :   1.2432 
B(  7-C ,  9-H ) :   0.8771 B(  8-C , 10-H ) :   0.8767 B( 11-H , 12-C ) :   0.8767 
B( 12-C , 15-C ) :   1.2431 B( 12-C , 16-C ) :   1.2432 B( 13-H , 15-C ) :   0.8771 
B( 14-H , 16-C ) :   0.8766 B( 15-C , 17-C ) :   1.2425 B( 16-C , 18-C ) :   1.2423 
B( 17-C , 18-C ) :   1.2435 B( 17-C , 19-H ) :   0.8770 B( 18-C , 20-H ) :   0.8768 


-------
TIMINGS
-------

Total SCF time: 0 days 0 hours 0 min 20 sec 

Total time                  ....      20.574 sec
Sum of individual times     ....      18.394 sec  ( 89.4%)

Fock matrix formation       ....      14.734 sec  ( 71.6%)
  Split-RI-J                ....       0.618 sec  (  4.2% of F)
  Chain of spheres X        ....       2.946 sec  ( 20.0% of F)
  XC integration            ....       9.608 sec  ( 65.2% of F)
    Basis function eval.    ....       0.166 sec  (  1.7% of XC)
    Density eval.           ....       0.129 sec  (  1.3% of XC)
    XC-Functional eval.     ....       0.042 sec  (  0.4% of XC)
    XC-Potential eval.      ....       0.055 sec  (  0.6% of XC)
Diagonalization             ....       0.074 sec  (  0.4%)
Density matrix formation    ....       0.003 sec  (  0.0%)
Population analysis         ....       0.086 sec  (  0.4%)
Initial guess               ....       0.007 sec  (  0.0%)
Orbital Transformation      ....       0.000 sec  (  0.0%)
Orbital Orthonormalization  ....       0.003 sec  (  0.0%)
DIIS solution               ....       0.297 sec  (  1.4%)
Grid generation             ....       3.193 sec  ( 15.5%)

Maximum memory used throughout the entire SCF-calculation: 55.7 MB

-------------------------   --------------------
FINAL SINGLE POINT ENERGY      -510.126257311878
-------------------------   --------------------

                                *** OPTIMIZATION RUN DONE ***

                            ***************************************
                            *     ORCA property calculations      *
                            ***************************************

                                    ---------------------
                                    Active property flags
                                    ---------------------
   (+) Dipole Moment


------------------------------------------------------------------------------
                       ORCA ELECTRIC PROPERTIES CALCULATION
------------------------------------------------------------------------------

Dipole Moment Calculation                       ... on
Quadrupole Moment Calculation                   ... off
Polarizability Calculation                      ... off
GBWName                                         ... FeCP2_plus2_small_opt.orca.gbw
Electron density                                ... FeCP2_plus2_small_opt.orca.scfp
The origin for moment calculation is the CENTER OF MASS  = (-10.982297, -7.257351 -2.912721)

-------------
DIPOLE MOMENT
-------------
                                X             Y             Z
Electronic contribution:     -0.05065      -0.00001      -0.00046
Nuclear contribution   :      0.05157      -0.00001       0.00051
                        -----------------------------------------
Total Dipole Moment    :      0.00092      -0.00002       0.00005
                        -----------------------------------------
Magnitude (a.u.)       :      0.00093
Magnitude (Debye)      :      0.00235



--------------------
Rotational spectrum 
--------------------
 
Rotational constants in cm-1:     0.071778     0.033203     0.033202 
Rotational constants in MHz :  2151.845128   995.397056   995.381677 

 Dipole components along the rotational axes: 
x,y,z [a.u.] :     0.000002     0.000062    -0.000924 
x,y,z [Debye]:     0.000004     0.000158    -0.002347 

 

Timings for individual modules:

Sum of individual times         ...      463.438 sec (=   7.724 min)
GTO integral calculation        ...       45.485 sec (=   0.758 min)   9.8 %
SCF iterations                  ...      357.133 sec (=   5.952 min)  77.1 %
SCF Gradient evaluation         ...       55.906 sec (=   0.932 min)  12.1 %
Geometry relaxation             ...        4.915 sec (=   0.082 min)   1.1 %
                             ****ORCA TERMINATED NORMALLY****
TOTAL RUN TIME: 0 days 0 hours 8 minutes 36 seconds 242 msec
